 Entering Gaussian System, Link 0=g16
 Initial command:
 /prod/precompiled/gaussian/16c2/g16/l1.exe "/scratch/ucsscms/mserrano/1758127/Gau-3984.inp" -scrdir="/scratch/ucsscms/mserrano/1758127/"
 Entering Link 1 = /prod/precompiled/gaussian/16c2/g16/l1.exe PID=      3985.
  
 Copyright (c) 1988-2021, Gaussian, Inc.  All Rights Reserved.
  
 This is part of the Gaussian(R) 16 program.  It is based on
 the Gaussian(R) 09 system (copyright 2009, Gaussian, Inc.),
 the Gaussian(R) 03 system (copyright 2003, Gaussian, Inc.),
 the Gaussian(R) 98 system (copyright 1998, Gaussian, Inc.),
 the Gaussian(R) 94 system (copyright 1995, Gaussian, Inc.),
 the Gaussian 92(TM) system (copyright 1992, Gaussian, Inc.),
 the Gaussian 90(TM) system (copyright 1990, Gaussian, Inc.),
 the Gaussian 88(TM) system (copyright 1988, Gaussian, Inc.),
 the Gaussian 86(TM) system (copyright 1986, Carnegie Mellon
 University), and the Gaussian 82(TM) system (copyright 1983,
 Carnegie Mellon University). Gaussian is a federally registered
 trademark of Gaussian, Inc.
  
 This software contains proprietary and confidential information,
 including trade secrets, belonging to Gaussian, Inc.
  
 This software is provided under written license and may be
 used, copied, transmitted, or stored only in accord with that
 written license.
  
 The following legend is applicable only to US Government
 contracts under FAR:
  
                    RESTRICTED RIGHTS LEGEND
  
 Use, reproduction and disclosure by the US Government is
 subject to restrictions as set forth in subparagraphs (a)
 and (c) of the Commercial Computer Software - Restricted
 Rights clause in FAR 52.227-19.
  
 Gaussian, Inc.
 340 Quinnipiac St., Bldg. 40, Wallingford CT 06492
  
  
 ---------------------------------------------------------------
 Warning -- This program may not be used in any manner that
 competes with the business of Gaussian, Inc. or will provide
 assistance to any competitor of Gaussian, Inc.  The licensee
 of this program is prohibited from giving any competitor of
 Gaussian, Inc. access to this program.  By using this program,
 the user acknowledges that Gaussian, Inc. is engaged in the
 business of creating and licensing software in the field of
 computational chemistry and represents and warrants to the
 licensee that it is not a competitor of Gaussian, Inc. and that
 it will not use this program in any manner prohibited above.
 ---------------------------------------------------------------
  

 Cite this work as:
 Gaussian 16, Revision C.02,
 M. J. Frisch, G. W. Trucks, H. B. Schlegel, G. E. Scuseria, 
 M. A. Robb, J. R. Cheeseman, G. Scalmani, V. Barone, 
 G. A. Petersson, H. Nakatsuji, X. Li, M. Caricato, A. V. Marenich, 
 J. Bloino, B. G. Janesko, R. Gomperts, B. Mennucci, H. P. Hratchian, 
 J. V. Ortiz, A. F. Izmaylov, J. L. Sonnenberg, D. Williams-Young, 
 F. Ding, F. Lipparini, F. Egidi, J. Goings, B. Peng, A. Petrone, 
 T. Henderson, D. Ranasinghe, V. G. Zakrzewski, J. Gao, N. Rega, 
 G. Zheng, W. Liang, M. Hada, M. Ehara, K. Toyota, R. Fukuda, 
 J. Hasegawa, M. Ishida, T. Nakajima, Y. Honda, O. Kitao, H. Nakai, 
 T. Vreven, K. Throssell, J. A. Montgomery, Jr., J. E. Peralta, 
 F. Ogliaro, M. J. Bearpark, J. J. Heyd, E. N. Brothers, K. N. Kudin, 
 V. N. Staroverov, T. A. Keith, R. Kobayashi, J. Normand, 
 K. Raghavachari, A. P. Rendell, J. C. Burant, S. S. Iyengar, 
 J. Tomasi, M. Cossi, J. M. Millam, M. Klene, C. Adamo, R. Cammi, 
 J. W. Ochterski, R. L. Martin, K. Morokuma, O. Farkas, 
 J. B. Foresman, and D. J. Fox, Gaussian, Inc., Wallingford CT, 2019.
 
 ******************************************
 Gaussian 16:  ES64L-G16RevC.02  7-Dec-2021
                 9-Oct-2025 
 ******************************************
 %nprocs=12
 Will use up to   12 processors via shared memory.
 %mem=20gb
 %mem=40gb
 %chk=/home/mserrano/Azos/MCS/dft/ts/123_TSinv_l_A.chk
 ----------------------------------------------------------------------
 #p UwB97XD/def2svp nosymm NoFMM maxdisk=200gb scf=(maxconventionalcycl
 es=40,xqc) Opt=(TS,NoEigenTest,RecalcFC=10,Cartesian,SkipDihedral,MaxC
 ycles=300) freq
 ----------------------------------------------------------------------
 1/5=1,6=300,10=7,11=1,18=10,26=3,38=1,71=10,156=2/1,3;
 2/12=2,15=1,17=6,18=5,29=2,40=1/2;
 3/5=43,7=101,11=2,25=1,30=1,49=2048,71=2,74=-58,116=2,140=1/1,2,3;
 4//1;
 5/5=2,8=3,13=1,38=5,85=40/2,8;
 8/6=4,10=90,11=11/1;
 11/6=1,8=1,9=11,15=111,16=1,31=1/1,2,10;
 10/6=1,31=1/2;
 6/7=2,8=2,9=2,10=2,28=1/1;
 7/7=1,10=1,25=1,30=1/1,2,3,16;
 1/5=1,6=300,10=7,11=1,18=10,26=3,71=10,156=2/3(3);
 2/15=1,29=1/2;
 7/7=1,9=1,25=1,30=1,44=-1/16;
 99/12=1/99;
 2/15=1,29=1/2;
 3/5=43,7=101,11=2,25=1,30=1,49=2048,71=2,74=-58,116=2,140=1/1,2,3;
 4/5=5,16=3,69=1/1;
 5/5=2,8=3,13=1,38=5,85=40/2,8;
 8/6=4,10=90,11=11/1;
 11/6=1,8=1,9=11,15=111,16=1,31=1/1,2,10;
 10/6=1,31=1/2;
 7/7=1,10=1,25=1,30=1/1,2,3,16;
 1/5=1,6=300,11=1,18=10,26=3,71=10,156=2/3(-8);
 2/15=1,29=1/2;
 6/7=2,8=2,9=2,10=2,19=2,28=1/1;
 7/7=1,9=1,25=1,30=1,44=-1/16;
 99/9=1,12=1/99;
 Leave Link    1 at Thu Oct  9 17:54:51 2025, MaxMem=  5368709120 cpu:               0.2 elap:               0.1
 (Enter /prod/precompiled/gaussian/16c2/g16/l101.exe)
 -------------------
 Title Card Required
 -------------------
 Symbolic Z-matrix:
 Charge =  0 Multiplicity = 1
 C                     1.41316   0.        0. 
 C                     2.16039   1.20221  -0.02099 
 N                     1.49282   2.45126   0.06687 
 C                     3.55809   1.12409   0.11543 
 Cl                    4.5222    2.56085   0.16928 
 C                     4.20917  -0.10758   0.2195 
 C                     3.47576  -1.30137   0.23557 
 C                     4.1654   -2.63422   0.46633 
 O                     5.15119  -2.825    -0.55179 
 C                     4.84854  -2.73251   1.85845 
 N                     3.91808  -2.50856   2.97482 
 C                     4.55892  -2.56537   4.29403 
 C                     5.51267  -1.39346   4.54164 
 C                     3.44512  -2.5464    5.34422 
 C                     2.07893  -1.23244   0.11518 
 N                     0.        0.        0. 
 N                    -1.25065   0.00218   0. 
 C                    -1.80241  -1.29604   0.10636 
 C                    -3.13069  -1.40552   0.54251 
 C                    -3.75326  -2.6524    0.65913 
 C                    -3.05362  -3.8123    0.33739 
 C                    -1.73313  -3.72604  -0.09777 
 C                    -1.11485  -2.47725  -0.21364 
 H                     2.05201   3.22334  -0.28563 
 H                     0.55845   2.40159  -0.33771 
 H                     5.29242  -0.13593   0.32611 
 H                     3.44378  -3.45371   0.36494 
 H                     4.7498   -2.54947  -1.39378 
 H                     5.30393  -3.72702   1.94784 
 H                     5.67782  -2.01646   1.88965 
 H                     3.46453  -1.60026   2.86285 
 H                     5.1067   -3.50934   4.40121 
 H                     5.02132  -0.4309    4.35987 
 H                     5.86762  -1.39577   5.57813 
 H                     6.39688  -1.45019   3.8994 
 H                     2.76205  -3.39245   5.20909 
 H                     3.86302  -2.61666   6.35436 
 H                     2.8557   -1.62345   5.28962 
 H                     1.48338  -2.14361   0.15216 
 H                    -3.68856  -0.50729   0.79498 
 H                    -4.78427  -2.71608   0.9989 
 H                    -3.53573  -4.78292   0.42372 
 H                    -1.18224  -4.62847  -0.34947 
 H                    -0.08462  -2.43438  -0.55838 
 
 ITRead=  0  0  0  0  0  0  0  0  0  0  0  0  0  0  0  0  0  0  0  0
 ITRead=  0  0  0  0  0  0  0  0  0  0  0  0  0  0  0  0  0  0  0  0
 ITRead=  0  0  0  0
 MicOpt= -1 -1 -1 -1 -1 -1 -1 -1 -1 -1 -1 -1 -1 -1 -1 -1 -1 -1 -1 -1
 MicOpt= -1 -1 -1 -1 -1 -1 -1 -1 -1 -1 -1 -1 -1 -1 -1 -1 -1 -1 -1 -1
 MicOpt= -1 -1 -1 -1
 NAtoms=     44 NQM=       44 NQMF=       0 NMMI=      0 NMMIF=      0
                NMic=       0 NMicF=      0.
                    Isotopes and Nuclear Properties:
 (Nuclear quadrupole moments (NQMom) in fm**2, nuclear magnetic moments (NMagM)
  in nuclear magnetons)

  Atom         1           2           3           4           5           6           7           8           9          10
 IAtWgt=          12          12          14          12          35          12          12          12          16          12
 AtmWgt=  12.0000000  12.0000000  14.0030740  12.0000000  34.9688527  12.0000000  12.0000000  12.0000000  15.9949146  12.0000000
 NucSpn=           0           0           2           0           3           0           0           0           0           0
 AtZEff=  -0.0000000  -0.0000000  -0.0000000  -0.0000000  -0.0000000  -0.0000000  -0.0000000  -0.0000000  -0.0000000  -0.0000000
 NQMom=    0.0000000   0.0000000   2.0440000   0.0000000  -8.1650000   0.0000000   0.0000000   0.0000000   0.0000000   0.0000000
 NMagM=    0.0000000   0.0000000   0.4037610   0.0000000   0.8218740   0.0000000   0.0000000   0.0000000   0.0000000   0.0000000
 AtZNuc=   6.0000000   6.0000000   7.0000000   6.0000000  17.0000000   6.0000000   6.0000000   6.0000000   8.0000000   6.0000000

  Atom        11          12          13          14          15          16          17          18          19          20
 IAtWgt=          14          12          12          12          12          14          14          12          12          12
 AtmWgt=  14.0030740  12.0000000  12.0000000  12.0000000  12.0000000  14.0030740  14.0030740  12.0000000  12.0000000  12.0000000
 NucSpn=           2           0           0           0           0           2           2           0           0           0
 AtZEff=  -0.0000000  -0.0000000  -0.0000000  -0.0000000  -0.0000000  -0.0000000  -0.0000000  -0.0000000  -0.0000000  -0.0000000
 NQMom=    2.0440000   0.0000000   0.0000000   0.0000000   0.0000000   2.0440000   2.0440000   0.0000000   0.0000000   0.0000000
 NMagM=    0.4037610   0.0000000   0.0000000   0.0000000   0.0000000   0.4037610   0.4037610   0.0000000   0.0000000   0.0000000
 AtZNuc=   7.0000000   6.0000000   6.0000000   6.0000000   6.0000000   7.0000000   7.0000000   6.0000000   6.0000000   6.0000000

  Atom        21          22          23          24          25          26          27          28          29          30
 IAtWgt=          12          12          12           1           1           1           1           1           1           1
 AtmWgt=  12.0000000  12.0000000  12.0000000   1.0078250   1.0078250   1.0078250   1.0078250   1.0078250   1.0078250   1.0078250
 NucSpn=           0           0           0           1           1           1           1           1           1           1
 AtZEff=  -0.0000000  -0.0000000  -0.0000000  -0.0000000  -0.0000000  -0.0000000  -0.0000000  -0.0000000  -0.0000000  -0.0000000
 NQMom=    0.0000000   0.0000000   0.0000000   0.0000000   0.0000000   0.0000000   0.0000000   0.0000000   0.0000000   0.0000000
 NMagM=    0.0000000   0.0000000   0.0000000   2.7928460   2.7928460   2.7928460   2.7928460   2.7928460   2.7928460   2.7928460
 AtZNuc=   6.0000000   6.0000000   6.0000000   1.0000000   1.0000000   1.0000000   1.0000000   1.0000000   1.0000000   1.0000000

  Atom        31          32          33          34          35          36          37          38          39          40
 IAtWgt=           1           1           1           1           1           1           1           1           1           1
 AtmWgt=   1.0078250   1.0078250   1.0078250   1.0078250   1.0078250   1.0078250   1.0078250   1.0078250   1.0078250   1.0078250
 NucSpn=           1           1           1           1           1           1           1           1           1           1
 AtZEff=  -0.0000000  -0.0000000  -0.0000000  -0.0000000  -0.0000000  -0.0000000  -0.0000000  -0.0000000  -0.0000000  -0.0000000
 NQMom=    0.0000000   0.0000000   0.0000000   0.0000000   0.0000000   0.0000000   0.0000000   0.0000000   0.0000000   0.0000000
 NMagM=    2.7928460   2.7928460   2.7928460   2.7928460   2.7928460   2.7928460   2.7928460   2.7928460   2.7928460   2.7928460
 AtZNuc=   1.0000000   1.0000000   1.0000000   1.0000000   1.0000000   1.0000000   1.0000000   1.0000000   1.0000000   1.0000000

  Atom        41          42          43          44
 IAtWgt=           1           1           1           1
 AtmWgt=   1.0078250   1.0078250   1.0078250   1.0078250
 NucSpn=           1           1           1           1
 AtZEff=  -0.0000000  -0.0000000  -0.0000000  -0.0000000
 NQMom=    0.0000000   0.0000000   0.0000000   0.0000000
 NMagM=    2.7928460   2.7928460   2.7928460   2.7928460
 AtZNuc=   1.0000000   1.0000000   1.0000000   1.0000000
 Leave Link  101 at Thu Oct  9 17:54:51 2025, MaxMem=  5368709120 cpu:               0.1 elap:               0.1
 (Enter /prod/precompiled/gaussian/16c2/g16/l103.exe)

 GradGradGradGradGradGradGradGradGradGradGradGradGradGradGradGradGradGrad
 Berny optimization.
 Initialization pass.
 No Z-matrix variables, so optimization will use Cartesian coordinates.
 Trust Radius=3.00D-01 FncErr=1.00D-07 GrdErr=1.00D-06 EigMax=2.50D+02 EigMin=1.00D-04
 Number of steps in this run=    264 maximum allowed number of steps=    264.
 Search for a saddle point of order  1.
 Step   0 in ReCalcFC=10 IGetFC= 4 compute analytic Hessian.
 GradGradGradGradGradGradGradGradGradGradGradGradGradGradGradGradGradGrad

 Leave Link  103 at Thu Oct  9 17:54:51 2025, MaxMem=  5368709120 cpu:               0.1 elap:               0.0
 (Enter /prod/precompiled/gaussian/16c2/g16/l202.exe)
 ---------------------------------------------------------------------------------------------------
                            Z-MATRIX (ANGSTROMS AND DEGREES)
   CD    Cent   Atom    N1       Length/X        N2       Alpha/Y        N3        Beta/Z          J
 ---------------------------------------------------------------------------------------------------
      1      1  C        0   1.413159          0.000000          0.000000
      2      2  C        0   2.160390          1.202211         -0.020985
      3      3  N        0   1.492824          2.451262          0.066873
      4      4  C        0   3.558094          1.124089          0.115429
      5      5  Cl       0   4.522199          2.560848          0.169276
      6      6  C        0   4.209165         -0.107581          0.219501
      7      7  C        0   3.475756         -1.301370          0.235565
      8      8  C        0   4.165395         -2.634218          0.466326
      9      9  O        0   5.151187         -2.825003         -0.551785
     10     10  C        0   4.848540         -2.732512          1.858448
     11     11  N        0   3.918083         -2.508558          2.974817
     12     12  C        0   4.558922         -2.565371          4.294030
     13     13  C        0   5.512673         -1.393457          4.541642
     14     14  C        0   3.445115         -2.546399          5.344222
     15     15  C        0   2.078934         -1.232440          0.115175
     16     16  N        0   0.000000          0.000000          0.000000
     17     17  N        0  -1.250646          0.002183          0.000000
     18     18  C        0  -1.802406         -1.296043          0.106364
     19     19  C        0  -3.130693         -1.405523          0.542514
     20     20  C        0  -3.753256         -2.652401          0.659125
     21     21  C        0  -3.053618         -3.812296          0.337390
     22     22  C        0  -1.733129         -3.726042         -0.097770
     23     23  C        0  -1.114855         -2.477252         -0.213637
     24     24  H        0   2.052011          3.223340         -0.285628
     25     25  H        0   0.558452          2.401592         -0.337710
     26     26  H        0   5.292422         -0.135928          0.326105
     27     27  H        0   3.443776         -3.453714          0.364943
     28     28  H        0   4.749803         -2.549472         -1.393784
     29     29  H        0   5.303930         -3.727015          1.947839
     30     30  H        0   5.677823         -2.016460          1.889652
     31     31  H        0   3.464531         -1.600262          2.862846
     32     32  H        0   5.106697         -3.509344          4.401207
     33     33  H        0   5.021318         -0.430896          4.359869
     34     34  H        0   5.867622         -1.395773          5.578133
     35     35  H        0   6.396879         -1.450186          3.899402
     36     36  H        0   2.762052         -3.392449          5.209091
     37     37  H        0   3.863017         -2.616664          6.354356
     38     38  H        0   2.855701         -1.623445          5.289623
     39     39  H        0   1.483379         -2.143613          0.152164
     40     40  H        0  -3.688559         -0.507293          0.794980
     41     41  H        0  -4.784271         -2.716078          0.998904
     42     42  H        0  -3.535726         -4.782922          0.423718
     43     43  H        0  -1.182243         -4.628465         -0.349466
     44     44  H        0  -0.084624         -2.434376         -0.558382
 ---------------------------------------------------------------------------------------------------
                         Z-Matrix orientation:                         
 ---------------------------------------------------------------------
 Center     Atomic      Atomic             Coordinates (Angstroms)
 Number     Number       Type             X           Y           Z
 ---------------------------------------------------------------------
      1          6           0        1.413159    0.000000    0.000000
      2          6           0        2.160390    1.202211   -0.020985
      3          7           0        1.492824    2.451262    0.066873
      4          6           0        3.558094    1.124089    0.115429
      5         17           0        4.522199    2.560848    0.169276
      6          6           0        4.209165   -0.107581    0.219501
      7          6           0        3.475756   -1.301370    0.235565
      8          6           0        4.165395   -2.634218    0.466326
      9          8           0        5.151187   -2.825003   -0.551785
     10          6           0        4.848540   -2.732512    1.858448
     11          7           0        3.918083   -2.508558    2.974817
     12          6           0        4.558922   -2.565371    4.294030
     13          6           0        5.512673   -1.393457    4.541642
     14          6           0        3.445115   -2.546399    5.344222
     15          6           0        2.078934   -1.232440    0.115175
     16          7           0        0.000000    0.000000    0.000000
     17          7           0       -1.250646    0.002183    0.000000
     18          6           0       -1.802406   -1.296043    0.106364
     19          6           0       -3.130693   -1.405523    0.542514
     20          6           0       -3.753256   -2.652401    0.659125
     21          6           0       -3.053618   -3.812296    0.337390
     22          6           0       -1.733129   -3.726042   -0.097770
     23          6           0       -1.114855   -2.477252   -0.213637
     24          1           0        2.052011    3.223340   -0.285628
     25          1           0        0.558452    2.401592   -0.337710
     26          1           0        5.292422   -0.135928    0.326105
     27          1           0        3.443776   -3.453714    0.364943
     28          1           0        4.749803   -2.549472   -1.393784
     29          1           0        5.303930   -3.727015    1.947839
     30          1           0        5.677823   -2.016460    1.889652
     31          1           0        3.464531   -1.600262    2.862846
     32          1           0        5.106697   -3.509344    4.401207
     33          1           0        5.021318   -0.430896    4.359869
     34          1           0        5.867622   -1.395773    5.578133
     35          1           0        6.396879   -1.450186    3.899402
     36          1           0        2.762052   -3.392449    5.209091
     37          1           0        3.863017   -2.616664    6.354356
     38          1           0        2.855701   -1.623445    5.289623
     39          1           0        1.483379   -2.143613    0.152164
     40          1           0       -3.688559   -0.507293    0.794980
     41          1           0       -4.784271   -2.716078    0.998904
     42          1           0       -3.535726   -4.782922    0.423718
     43          1           0       -1.182243   -4.628465   -0.349466
     44          1           0       -0.084624   -2.434376   -0.558382
 ---------------------------------------------------------------------
                    Distance matrix (angstroms):
                    1          2          3          4          5
     1  C    0.000000
     2  C    1.415664   0.000000
     3  N    2.453468   1.418976   0.000000
     4  C    2.424386   1.406516   2.455420   0.000000
     5  Cl   4.031467   2.731343   3.033086   1.731091   0.000000
     6  C    2.806671   2.443536   3.734900   1.397045   2.687197
     7  C    2.450176   2.839705   4.247673   2.429828   4.002020
     8  C    3.838146   4.356111   5.758846   3.823194   5.215770
     9  O    4.717834   5.044310   6.450219   4.310272   5.470187
    10  C    4.766791   5.122545   6.429781   4.424561   5.565920
    11  N    4.627855   5.082728   6.240019   4.637005   5.825366
    12  C    5.908946   6.210232   7.241300   5.663433   6.579747
    13  C    6.274890   6.228391   7.138950   5.454336   5.977889
    14  C    6.258890   6.669936   7.525853   6.389485   7.350112
    15  C    1.405500   2.439816   3.730351   2.782291   4.512372
    16  N    1.413159   2.472456   2.870833   3.733220   5.199700
    17  N    2.663806   3.616030   3.678191   4.939228   6.316737
    18  C    3.468559   4.686282   4.990230   5.881503   7.408117
    19  C    4.787108   5.925653   6.039697   7.163882   8.627755
    20  C    5.844786   7.091671   7.342989   8.247019   9.792909
    21  C    5.882136   7.242899   7.744383   8.254205   9.901426
    22  C    4.877712   6.281167   6.970865   7.180965   8.872735
    23  C    3.545881   4.929786   5.582914   5.908840   7.570036
    24  H    3.298429   2.041260   1.016391   2.614572   2.597626
    25  H    2.571423   2.026089   1.019414   3.291687   3.999211
    26  H    3.895318   3.423553   4.604096   2.154048   2.808993
    27  H    4.023025   4.844962   6.226058   4.586023   6.113611
    28  H    4.424436   4.760752   6.144003   4.146438   5.348863
    29  H    5.729120   6.168904   7.498911   5.471643   6.581156
    30  H    5.081757   5.136410   6.387275   4.183798   5.024630
    31  H    3.868443   4.227425   5.302824   3.870290   5.068414
    32  H    6.732633   7.101778   8.208249   6.498828   7.422810
    33  H    5.675644   5.481225   6.259946   4.751239   5.173077
    34  H    7.273650   7.200223   8.019509   6.443971   6.835258
    35  H    6.491983   6.352360   7.345701   5.385540   5.789357
    36  H    6.361042   6.987603   7.886844   6.854064   7.996224
    37  H    7.295655   7.624154   8.416302   7.280826   8.092983
    38  H    5.718095   6.055605   6.762972   5.900388   6.819346
    39  H    2.150154   3.418020   4.595676   3.870874   5.600596
    40  H    5.188147   6.148041   6.010817   7.459033   8.787579
    41  H    6.839812   8.038749   8.183643   9.226184  10.730546
    42  H    6.895458   8.274377   8.817430   9.236347  10.905313
    43  H    5.317981   6.728884   7.579700   7.468521   9.192169
    44  H    2.912272   4.307395   5.171919   5.136739   6.834074
                    6          7          8          9         10
     6  C    0.000000
     7  C    1.401171   0.000000
     8  C    2.539042   1.518333   0.000000
     9  O    2.977695   2.397592   1.429942   0.000000
    10  C    3.159938   2.562509   1.553819   2.430920   0.000000
    11  N    3.666222   3.025964   2.523783   3.749347   1.470437
    12  C    4.771252   4.386580   3.848496   4.888774   2.458429
    13  C    4.693987   4.764432   4.467980   5.303112   3.071428
    14  C    5.726637   5.258271   4.931570   6.144201   3.762295
    15  C    2.411239   1.403694   2.538032   3.524178   3.599991
    16  N    4.216257   3.718862   4.950463   5.900834   5.867605
    17  N    5.465324   4.908525   6.041653   7.020037   6.937756
    18  C    6.128966   5.279746   6.126576   7.150058   7.026260
    19  C    7.460731   6.614396   7.399216   8.473603   8.195166
    20  C    8.370754   7.366363   7.921019   8.988059   8.685372
    21  C    8.153946   6.996273   7.315644   8.311691   8.119338
    22  C    6.964537   5.755226   6.025186   6.957859   6.937742
    23  C    5.843641   4.760062   5.326164   6.284788   6.318289
    24  H    4.000438   4.771969   6.272385   6.801337   6.920246
    25  H    4.464766   4.748814   6.246270   6.961059   7.041803
    26  H    1.088859   2.160261   2.744322   2.832272   3.047516
    27  H    3.435634   2.156466   1.096625   2.037381   2.173488
    28  H    2.976207   2.415726   1.951595   0.972620   3.258875
    29  H    4.157639   3.486812   2.164566   2.661781   1.097455
    30  H    2.930901   2.845427   2.166776   2.625205   1.096091
    31  H    3.125676   2.644252   2.702514   4.000563   2.050923
    32  H    5.464817   4.988756   4.139467   5.000243   2.671280
    33  H    4.231639   4.489585   4.554878   5.465616   3.403586
    34  H    5.755420   5.854312   5.528281   6.334972   4.081845
    35  H    4.486686   4.688156   4.262331   4.822337   2.864822
    36  H    6.146585   5.442237   5.003809   6.262400   4.001969
    37  H    6.637150   6.270532   5.895815   7.028341   4.604114
    38  H    5.462220   5.102127   5.099133   6.390230   4.120000
    39  H    3.402921   2.164693   2.744558   3.796400   3.818706
    40  H    7.928745   7.229863   8.143489   9.237243   8.886204
    41  H    9.396468   8.414994   8.965872  10.056333   9.671098
    42  H    9.048970   7.830548   7.995374   8.958097   8.749774
    43  H    7.058994   5.754023   5.765394   6.588304   6.696258
    44  H    4.945271   3.819733   4.376371   5.250367   5.501460
                   11         12         13         14         15
    11  N    0.000000
    12  C    1.467728   0.000000
    13  C    2.498221   1.531122   0.000000
    14  C    2.416446   1.530957   2.499641   0.000000
    15  C    3.631597   5.038837   5.604471   5.562002   0.000000
    16  N    5.522117   6.767835   7.277211   6.849356   2.419533
    17  N    6.470635   7.666949   8.265398   7.556861   3.552979
    18  C    6.513233   7.721025   8.555207   7.518978   3.881871
    19  C    7.537773   8.634194   9.523704   8.221876   5.229989
    20  C    8.014522   9.072619  10.125034   8.589407   6.027156
    21  C    7.567058   8.669521   9.844179   8.300867   5.748750
    22  C    6.546698   7.760475   8.914412   7.604015   4.560178
    23  C    5.957993   7.246970   8.228695   7.189430   3.443539
    24  H    6.853275   7.795322   7.522867   8.180821   4.473851
    25  H    6.809518   7.882100   7.921791   8.068444   3.965244
    26  H    3.812329   4.710058   4.404616   5.865527   3.401960
    27  H    2.815978   4.179764   5.096058   5.061269   2.619014
    28  H    4.447258   5.691038   6.094885   6.863159   3.338424
    29  H    2.111846   2.721960   3.495265   4.047773   4.470141
    30  H    2.125189   2.708187   2.729186   4.147273   4.088454
    31  H    1.021395   2.043872   2.656315   2.655707   3.099172
    32  H    2.109257   1.096645   2.159054   2.139485   5.720289
    33  H    2.729867   2.184978   1.095899   2.815798   5.226617
    34  H    3.437477   2.174759   1.095586   2.692061   6.650169
    35  H    2.849463   2.185739   1.094308   3.464404   5.745645
    36  H    2.666393   2.179481   3.465166   1.095735   5.574968
    37  H    3.381716   2.175283   2.739258   1.095422   6.635240
    38  H    2.696369   2.186182   2.769814   1.096464   5.247015
    39  H    3.745442   5.176089   6.005453   5.564900   1.089169
    40  H    8.161970   9.192387   9.974238   8.703037   5.852516
    41  H    8.926268   9.908371  10.969384   9.307705   7.077128
    42  H    8.200006   9.242303  10.503299   8.828677   6.650228
    43  H    6.446564   7.666772   8.900006   7.626633   4.731189
    44  H    5.339538   6.717558   7.643526   6.878397   2.565017
                   16         17         18         19         20
    16  N    0.000000
    17  N    1.250648   0.000000
    18  C    2.222545   1.414618   0.000000
    19  C    3.474342   2.410505   1.402341   0.000000
    20  C    4.642909   3.707333   2.439481   1.398531   0.000000
    21  C    4.896123   4.232587   2.819651   2.416728   1.392251
    22  C    4.110558   3.760586   2.439542   2.783515   2.409670
    23  C    2.724944   2.492324   1.403703   2.404989   2.784520
    24  H    3.831743   4.622227   5.952731   6.998043   8.313725
    25  H    2.488687   3.023913   4.409462   5.373891   6.717689
    26  H    5.304201   6.552645   7.192408   8.521008   9.395096
    27  H    4.890901   5.840720   5.678453   6.888415   7.247476
    28  H    5.568040   6.667756   6.837614   8.195126   8.747974
    29  H    6.768781   7.788675   7.733089   8.860425   9.211308
    30  H    6.314631   7.459852   7.723532   8.931852   9.532254
    31  H    4.770713   5.744268   5.952425   6.994201   7.619700
    32  H    7.600294   8.492188   8.430900   9.336497   9.655894
    33  H    6.663915   7.650722   8.087274   9.054136   9.778739
    34  H    8.215396   9.150934   9.422289  10.311509  10.878283
    35  H    7.630756   8.706282   9.035440  10.101748  10.722404
    36  H    6.802372   7.399993   7.160099   7.774912   7.981172
    37  H    7.883379   8.566548   8.536888   9.173677   9.510234
    38  H    6.226613   6.890926   6.976484   7.643262   8.135022
    39  H    2.611253   3.478863   3.393649   4.689010   5.285662
    40  H    3.807205   2.614379   2.157288   1.087093   2.150379
    41  H    5.591434   4.568726   3.421205   2.158742   1.087427
    42  H    5.962989   5.319620   3.906845   3.403673   2.154497
    43  H    4.789834   4.644320   3.420149   3.870328   3.395908
    44  H    2.499027   2.758300   2.165286   3.398389   3.871527
                   21         22         23         24         25
    21  C    0.000000
    22  C    1.393017   0.000000
    23  C    2.417597   1.398272   0.000000
    24  H    8.715261   7.915585   6.521577   0.000000
    25  H    7.219087   6.546512   5.159309   1.705491   0.000000
    26  H    9.119879   7.901073   6.842976   4.707352   5.412036
    27  H    6.507340   5.204672   4.697803   6.851518   6.565320
    28  H    8.092284   6.715086   5.982656   6.467724   6.572347
    29  H    8.511723   7.328350   6.887284   7.991920   8.081035
    30  H    9.048348   7.860962   7.125772   6.733042   7.119571
    31  H    7.331936   6.348217   5.586111   5.930872   5.890984
    32  H    9.121246   8.189687   7.814711   8.753660   8.836460
    33  H    9.634251   8.737911   7.921941   6.614444   7.071592
    34  H   10.625135   9.768185   9.136147   8.383244   8.809340
    35  H   10.372048   9.340981   8.625433   7.631134   8.177808
    36  H    7.598142   6.962809   6.728594   8.629297   8.318279
    37  H    9.245175   8.612636   8.242401   9.026338   8.993708
    38  H    8.014720   7.382566   6.839603   7.431061   7.290072
    39  H    4.837681   3.593393   2.644985   5.414720   4.664156
    40  H    3.396407   3.870537   3.394407   6.931052   5.270835
    41  H    2.152778   3.395908   3.871938   9.146664   7.518096
    42  H    1.087196   2.153672   3.403374   9.789086   8.304174
    43  H    2.154054   1.086827   2.156550   8.492074   7.242366
    44  H    3.393523   2.144326   1.087227   6.053871   4.883526
                   26         27         28         29         30
    26  H    0.000000
    27  H    3.798250   0.000000
    28  H    3.012914   2.369912   0.000000
    29  H    3.940312   2.457728   3.586099   0.000000
    30  H    2.475806   3.062908   3.453444   1.751908   0.000000
    31  H    3.452610   3.110504   4.546628   2.956976   2.453363
    32  H    5.293476   4.365756   5.884781   2.470890   2.977045
    33  H    4.053610   5.252190   6.137313   4.094162   3.007820
    34  H    5.431562   6.106349   7.154591   4.351031   3.745153
    35  H    3.964284   5.022683   5.651469   3.191721   2.208348
    36  H    6.391499   4.892266   6.946922   4.148354   4.627498
    37  H    6.673609   6.062135   7.799011   4.767232   4.856681
    38  H    5.725978   5.286605   7.008072   4.646112   4.436061
    39  H    4.309276   2.367445   3.636510   4.508683   4.541849
    40  H    9.000876   7.728941   8.953610   9.620839   9.550131
    41  H   10.423511   8.285335   9.831138  10.183038  10.523227
    42  H    9.976987   7.105188   8.771636   9.032021   9.730969
    43  H    7.909524   4.826020   6.371968   6.939788   7.674420
    44  H    5.914204   3.786976   4.907426   6.081823   6.274816
                   31         32         33         34         35
    31  H    0.000000
    32  H    2.950908   0.000000
    33  H    2.456029   3.079909   0.000000
    34  H    3.631728   2.536009   1.769572   0.000000
    35  H    3.113782   2.481231   1.772893   1.761026   0.000000
    36  H    3.034844   2.482680   3.820505   3.710454   4.324308
    37  H    3.658211   2.481614   3.177613   2.472153   3.715902
    38  H    2.502091   3.068042   2.641309   3.034261   3.808238
    39  H    3.401175   5.748741   5.758055   7.015839   6.218128
    40  H    7.525779   9.968636   9.411494  10.723271  10.594458
    41  H    8.530068  10.489813  10.614505  11.669420  11.620391
    42  H    8.067358   9.598640  10.375761  11.245609  11.038304
    43  H    6.409483   7.960659   8.847688   9.761523   9.251888
    44  H    4.999705   7.259676   7.367073   8.611896   7.927821
                   36         37         38         39         40
    36  H    0.000000
    37  H    1.767936   0.000000
    38  H    1.773311   1.770544   0.000000
    39  H    5.363498   6.659853   5.342970   0.000000
    40  H    8.331800   9.611577   8.017166   5.462572   0.000000
    41  H    8.667765  10.171840   8.830248   6.350443   2.474045
    42  H    8.030891   9.726589   8.631898   5.677245   4.294438
    43  H    6.926959   8.628049   7.558734   3.678541   4.957362
    44  H    6.502708   7.962603   6.595626   1.745867   4.305065
                   41         42         43         44
    41  H    0.000000
    42  H    2.482246   0.000000
    43  H    4.295338   2.482046   0.000000
    44  H    4.958949   4.288391   2.462202   0.000000
 Symmetry turned off by external request.
 Stoichiometry    C17H21ClN4O
 Framework group  C1[X(C17H21ClN4O)]
 Deg. of freedom   126
 Full point group                 C1      NOp   1
 Rotational constants (GHZ):           0.2501432           0.1401910           0.1092711
 Leave Link  202 at Thu Oct  9 17:54:51 2025, MaxMem=  5368709120 cpu:               0.1 elap:               0.1
 (Enter /prod/precompiled/gaussian/16c2/g16/l301.exe)
 Standard basis: def2SVP (5D, 7F)
 Ernie: Thresh=  0.10000D-02 Tol=  0.10000D-05 Strict=F.
   431 basis functions,   734 primitive gaussians,   454 cartesian basis functions
    88 alpha electrons       88 beta electrons
       nuclear repulsion energy      1981.2396186818 Hartrees.
 IExCor= 4639 DFT=T Ex+Corr=wB97XD ExCW=0 ScaHFX=  1.000000
 ScaDFX=  1.000000  1.000000  1.000000  1.000000 ScalE2=  1.000000  1.000000
 IRadAn=      5 IRanWt=     -1 IRanGd=            0 ICorTp=0 IEmpDi=121
 HFx  wShort=  0.000000 wLong=  0.200000 cFull=  0.222036 cShort=  0.000000 cLong=  0.777964
 DFx  wShort=  0.000000 wLong=  0.200000 cFull=  0.000000 cShort=  0.000000 cLong=  1.000000
 Integral buffers will be    131072 words long.
 Raffenetti 2 integral format.
 Two-electron integral symmetry is turned off.
 R6Disp:  Grimme-D2 Dispersion energy=       -0.0325579626 Hartrees.
 Nuclear repulsion after empirical dispersion term =     1981.2070607192 Hartrees.
 Leave Link  301 at Thu Oct  9 17:54:51 2025, MaxMem=  5368709120 cpu:               0.1 elap:               0.0
 (Enter /prod/precompiled/gaussian/16c2/g16/l302.exe)
 NPDir=0 NMtPBC=     1 NCelOv=     1 NCel=       1 NClECP=     1 NCelD=      1
         NCelK=      1 NCelE2=     1 NClLst=     1 CellRange=     0.0.
 One-electron integrals computed using PRISM.
   1 Symmetry operations used in ECPInt.
 ECPInt:  NShTT=   20706 NPrTT=   75450 LenC2=   17754 LenP2D=   43664.
 LDataN:  DoStor=T MaxTD1= 4 Len=   56
 NBasis=   431 RedAO= T EigKep=  1.69D-04  NBF=   431
 NBsUse=   431 1.00D-06 EigRej= -1.00D+00 NBFU=   431
 Precomputing XC quadrature grid using
 IXCGrd= 4 IRadAn=           5 IRanWt=          -1 IRanGd=           0 AccXCQ= 0.00D+00.
 Generated NRdTot=       0 NPtTot=           0 NUsed=           0 NTot=          32
 NSgBfM=   451   451   451   451   451 MxSgAt=    44 MxSgA2=    44.
 Leave Link  302 at Thu Oct  9 17:54:52 2025, MaxMem=  5368709120 cpu:               3.0 elap:               0.5
 (Enter /prod/precompiled/gaussian/16c2/g16/l303.exe)
 DipDrv:  MaxL=1.
 Leave Link  303 at Thu Oct  9 17:54:52 2025, MaxMem=  5368709120 cpu:               0.2 elap:               0.1
 (Enter /prod/precompiled/gaussian/16c2/g16/l401.exe)
 ExpMin= 1.22D-01 ExpMax= 1.04D+04 ExpMxC= 1.57D+03 IAcc=3 IRadAn=         5 AccDes= 0.00D+00
 Harris functional with IExCor= 4639 and IRadAn=       5 diagonalized for initial guess.
 HarFok:  IExCor= 4639 AccDes= 0.00D+00 IRadAn=         5 IDoV= 1 UseB2=F ITyADJ=14
 ICtDFT=  3500011 ScaDFX=  1.000000  1.000000  1.000000  1.000000
 FoFCou: FMM=F IPFlag=           0 FMFlag=      100000 FMFlg1=         800
         NFxFlg=           0 DoJE=T BraDBF=F KetDBF=T FulRan=T
         wScrn=  0.000000 ICntrl=       500 IOpCl=  0 I1Cent=   200000004 NGrid=           0
         NMat0=    1 NMatS0=      1 NMatT0=    0 NMatD0=    1 NMtDS0=    0 NMtDT0=    0
 Symmetry not used in FoFCou.
 Harris En= -1364.07095539415    
 JPrj=0 DoOrth=F DoCkMO=F.
 Initial guess <Sx>= 0.0000 <Sy>= 0.0000 <Sz>= 0.0000 <S**2>=-0.0000 S=-0.0000
 Leave Link  401 at Thu Oct  9 17:54:53 2025, MaxMem=  5368709120 cpu:              10.6 elap:               1.1
 (Enter /prod/precompiled/gaussian/16c2/g16/l502.exe)
 Two-electron integral symmetry not used.
 UHF open shell SCF:
 Using DIIS extrapolation, IDIIS=  1040.
 NGot=  5368709120 LenX=  5368286628 LenY=  5368080058
 Requested convergence on RMS density matrix=1.00D-08 within  40 cycles.
 Requested convergence on MAX density matrix=1.00D-06.
 Requested convergence on             energy=1.00D-06.
 No special actions if energy rises.
 Fock matrices will be formed incrementally for  20 cycles.
 Integral accuracy reduced to 1.0D-05 until final iterations.

 Cycle   1  Pass 0  IDiag  1:
 FoFJK:  IHMeth= 1 ICntrl=       0 DoSepK=T KAlg= 0 I1Cent=           0 FoldK=F
 IRaf=         1 NMat=       1 IRICut=       1 DoRegI=T DoRafI=F ISym2E= 0 IDoP0=0 IntGTp=1.
 FoFCou: FMM=F IPFlag=           0 FMFlag=      100000 FMFlg1=         800
         NFxFlg=           0 DoJE=T BraDBF=F KetDBF=F FulRan=T
         wScrn=  0.000000 ICntrl=       500 IOpCl=  0 I1Cent=           0 NGrid=           0
         NMat0=    1 NMatS0=      1 NMatT0=    0 NMatD0=    1 NMtDS0=    0 NMtDT0=    0
 Symmetry not used in FoFCou.
 E= -1413.27583990463    
 DIIS: error= 4.42D-02 at cycle   1 NSaved=   1.
 NSaved= 1 IEnMin= 1 EnMin= -1413.27583990463     IErMin= 1 ErrMin= 4.42D-02
 ErrMax= 4.42D-02  0.00D+00 EMaxC= 1.00D-01 BMatC= 2.67D+00 BMatP= 2.67D+00
 IDIUse=3 WtCom= 5.58D-01 WtEn= 4.42D-01
 Coeff-Com:  0.100D+01
 Coeff-En:   0.100D+01
 Coeff:      0.100D+01
 Gap=     0.293 Goal=   None    Shift=    0.000
 Gap=     0.293 Goal=   None    Shift=    0.000
 GapD=    0.293 DampG=1.000 DampE=0.500 DampFc=0.5000 IDamp=-1.
 Damping current iteration by 5.00D-01
 RMSDP=3.77D-03 MaxDP=2.71D-01              OVMax= 2.16D-01

 Cycle   2  Pass 0  IDiag  1:
 RMSU=  1.83D-03    CP:  9.75D-01
 E= -1413.44491194159     Delta-E=       -0.169072036959 Rises=F Damp=T
 DIIS: error= 1.29D-02 at cycle   2 NSaved=   2.
 NSaved= 2 IEnMin= 2 EnMin= -1413.44491194159     IErMin= 2 ErrMin= 1.29D-02
 ErrMax= 1.29D-02  0.00D+00 EMaxC= 1.00D-01 BMatC= 4.31D-01 BMatP= 2.67D+00
 IDIUse=3 WtCom= 8.71D-01 WtEn= 1.29D-01
 Coeff-Com: -0.322D+00 0.132D+01
 Coeff-En:   0.000D+00 0.100D+01
 Coeff:     -0.281D+00 0.128D+01
 Gap=     0.364 Goal=   None    Shift=    0.000
 Gap=     0.364 Goal=   None    Shift=    0.000
 RMSDP=1.45D-03 MaxDP=4.97D-02 DE=-1.69D-01 OVMax= 1.35D-01

 Cycle   3  Pass 0  IDiag  1:
 RMSU=  1.35D-03    CP:  9.62D-01  1.27D+00
 E= -1413.58840399838     Delta-E=       -0.143492056785 Rises=F Damp=F
 DIIS: error= 6.24D-03 at cycle   3 NSaved=   3.
 NSaved= 3 IEnMin= 3 EnMin= -1413.58840399838     IErMin= 3 ErrMin= 6.24D-03
 ErrMax= 6.24D-03  0.00D+00 EMaxC= 1.00D-01 BMatC= 1.29D-01 BMatP= 4.31D-01
 IDIUse=3 WtCom= 9.38D-01 WtEn= 6.24D-02
 Coeff-Com: -0.236D+00 0.558D+00 0.679D+00
 Coeff-En:   0.000D+00 0.000D+00 0.100D+01
 Coeff:     -0.222D+00 0.523D+00 0.699D+00
 Gap=     0.245 Goal=   None    Shift=    0.000
 Gap=     0.245 Goal=   None    Shift=    0.000
 RMSDP=7.92D-04 MaxDP=3.94D-02 DE=-1.43D-01 OVMax= 5.53D-02

 Cycle   4  Pass 0  IDiag  1:
 RMSU=  5.14D-04    CP:  9.51D-01  1.52D+00  7.34D-01
 E= -1413.61972018953     Delta-E=       -0.031316191156 Rises=F Damp=F
 DIIS: error= 1.68D-03 at cycle   4 NSaved=   4.
 NSaved= 4 IEnMin= 4 EnMin= -1413.61972018953     IErMin= 4 ErrMin= 1.68D-03
 ErrMax= 1.68D-03  0.00D+00 EMaxC= 1.00D-01 BMatC= 8.69D-03 BMatP= 1.29D-01
 IDIUse=3 WtCom= 9.83D-01 WtEn= 1.68D-02
 Coeff-Com: -0.654D-01 0.127D+00 0.286D+00 0.652D+00
 Coeff-En:   0.000D+00 0.000D+00 0.000D+00 0.100D+01
 Coeff:     -0.643D-01 0.125D+00 0.281D+00 0.658D+00
 Gap=     0.228 Goal=   None    Shift=    0.000
 Gap=     0.228 Goal=   None    Shift=    0.000
 RMSDP=1.75D-04 MaxDP=1.01D-02 DE=-3.13D-02 OVMax= 1.25D-02

 Cycle   5  Pass 0  IDiag  1:
 RMSU=  9.73D-05    CP:  9.52D-01  1.52D+00  8.22D-01  8.37D-01
 E= -1413.62211479593     Delta-E=       -0.002394606391 Rises=F Damp=F
 DIIS: error= 3.37D-04 at cycle   5 NSaved=   5.
 NSaved= 5 IEnMin= 5 EnMin= -1413.62211479593     IErMin= 5 ErrMin= 3.37D-04
 ErrMax= 3.37D-04  0.00D+00 EMaxC= 1.00D-01 BMatC= 3.70D-04 BMatP= 8.69D-03
 IDIUse=3 WtCom= 9.97D-01 WtEn= 3.37D-03
 Coeff-Com: -0.723D-02 0.921D-02 0.541D-01 0.208D+00 0.736D+00
 Coeff-En:   0.000D+00 0.000D+00 0.000D+00 0.000D+00 0.100D+01
 Coeff:     -0.720D-02 0.918D-02 0.539D-01 0.207D+00 0.737D+00
 Gap=     0.229 Goal=   None    Shift=    0.000
 Gap=     0.229 Goal=   None    Shift=    0.000
 RMSDP=5.45D-05 MaxDP=1.72D-03 DE=-2.39D-03 OVMax= 8.70D-03

 Cycle   6  Pass 0  IDiag  1:
 RMSU=  3.82D-05    CP:  9.51D-01  1.53D+00  8.30D-01  8.93D-01  1.15D+00
 E= -1413.62232554243     Delta-E=       -0.000210746501 Rises=F Damp=F
 DIIS: error= 1.65D-04 at cycle   6 NSaved=   6.
 NSaved= 6 IEnMin= 6 EnMin= -1413.62232554243     IErMin= 6 ErrMin= 1.65D-04
 ErrMax= 1.65D-04  0.00D+00 EMaxC= 1.00D-01 BMatC= 9.12D-05 BMatP= 3.70D-04
 IDIUse=3 WtCom= 9.98D-01 WtEn= 1.65D-03
 Coeff-Com:  0.157D-01-0.319D-01-0.570D-01-0.996D-01 0.256D+00 0.917D+00
 Coeff-En:   0.000D+00 0.000D+00 0.000D+00 0.000D+00 0.000D+00 0.100D+01
 Coeff:      0.157D-01-0.319D-01-0.569D-01-0.994D-01 0.256D+00 0.917D+00
 Gap=     0.230 Goal=   None    Shift=    0.000
 Gap=     0.230 Goal=   None    Shift=    0.000
 RMSDP=5.04D-05 MaxDP=1.58D-03 DE=-2.11D-04 OVMax= 1.01D-02

 Cycle   7  Pass 0  IDiag  1:
 RMSU=  2.34D-05    CP:  9.51D-01  1.53D+00  8.40D-01  9.37D-01  1.46D+00
                    CP:  1.41D+00
 E= -1413.62243618511     Delta-E=       -0.000110642688 Rises=F Damp=F
 DIIS: error= 9.98D-05 at cycle   7 NSaved=   7.
 NSaved= 7 IEnMin= 7 EnMin= -1413.62243618511     IErMin= 7 ErrMin= 9.98D-05
 ErrMax= 9.98D-05  0.00D+00 EMaxC= 1.00D-01 BMatC= 2.18D-05 BMatP= 9.12D-05
 IDIUse=1 WtCom= 1.00D+00 WtEn= 0.00D+00
 Coeff-Com:  0.596D-02-0.113D-01-0.252D-01-0.592D-01 0.267D-02 0.345D+00
 Coeff-Com:  0.742D+00
 Coeff:      0.596D-02-0.113D-01-0.252D-01-0.592D-01 0.267D-02 0.345D+00
 Coeff:      0.742D+00
 Gap=     0.230 Goal=   None    Shift=    0.000
 Gap=     0.230 Goal=   None    Shift=    0.000
 RMSDP=2.09D-05 MaxDP=1.02D-03 DE=-1.11D-04 OVMax= 5.49D-03

 Cycle   8  Pass 0  IDiag  1:
 RMSU=  1.01D-05    CP:  9.51D-01  1.53D+00  8.41D-01  9.48D-01  1.56D+00
                    CP:  1.70D+00  1.40D+00
 E= -1413.62246975153     Delta-E=       -0.000033566416 Rises=F Damp=F
 DIIS: error= 7.25D-05 at cycle   8 NSaved=   8.
 NSaved= 8 IEnMin= 8 EnMin= -1413.62246975153     IErMin= 8 ErrMin= 7.25D-05
 ErrMax= 7.25D-05  0.00D+00 EMaxC= 1.00D-01 BMatC= 9.96D-06 BMatP= 2.18D-05
 IDIUse=1 WtCom= 1.00D+00 WtEn= 0.00D+00
 Coeff-Com: -0.376D-02 0.789D-02 0.121D-01 0.149D-01-0.922D-01-0.195D+00
 Coeff-Com:  0.294D+00 0.962D+00
 Coeff:     -0.376D-02 0.789D-02 0.121D-01 0.149D-01-0.922D-01-0.195D+00
 Coeff:      0.294D+00 0.962D+00
 Gap=     0.230 Goal=   None    Shift=    0.000
 Gap=     0.230 Goal=   None    Shift=    0.000
 RMSDP=2.40D-05 MaxDP=1.29D-03 DE=-3.36D-05 OVMax= 6.53D-03

 Cycle   9  Pass 0  IDiag  1:
 RMSU=  6.52D-06    CP:  9.51D-01  1.53D+00  8.41D-01  9.53D-01  1.65D+00
                    CP:  2.04D+00  2.05D+00  1.68D+00
 E= -1413.62249791987     Delta-E=       -0.000028168344 Rises=F Damp=F
 DIIS: error= 5.51D-05 at cycle   9 NSaved=   9.
 NSaved= 9 IEnMin= 9 EnMin= -1413.62249791987     IErMin= 9 ErrMin= 5.51D-05
 ErrMax= 5.51D-05  0.00D+00 EMaxC= 1.00D-01 BMatC= 4.66D-06 BMatP= 9.96D-06
 IDIUse=1 WtCom= 1.00D+00 WtEn= 0.00D+00
 Coeff-Com: -0.443D-02 0.863D-02 0.174D-01 0.353D-01-0.415D-01-0.253D+00
 Coeff-Com: -0.250D+00 0.400D+00 0.109D+01
 Coeff:     -0.443D-02 0.863D-02 0.174D-01 0.353D-01-0.415D-01-0.253D+00
 Coeff:     -0.250D+00 0.400D+00 0.109D+01
 Gap=     0.230 Goal=   None    Shift=    0.000
 Gap=     0.230 Goal=   None    Shift=    0.000
 RMSDP=2.50D-05 MaxDP=1.45D-03 DE=-2.82D-05 OVMax= 7.08D-03

 Cycle  10  Pass 0  IDiag  1:
 RMSU=  4.19D-06    CP:  9.51D-01  1.53D+00  8.41D-01  9.59D-01  1.74D+00
                    CP:  2.35D+00  2.71D+00  2.75D+00  1.83D+00
 E= -1413.62251823278     Delta-E=       -0.000020312907 Rises=F Damp=F
 DIIS: error= 3.29D-05 at cycle  10 NSaved=  10.
 NSaved=10 IEnMin=10 EnMin= -1413.62251823278     IErMin=10 ErrMin= 3.29D-05
 ErrMax= 3.29D-05  0.00D+00 EMaxC= 1.00D-01 BMatC= 1.61D-06 BMatP= 4.66D-06
 IDIUse=1 WtCom= 1.00D+00 WtEn= 0.00D+00
 Coeff-Com:  0.146D-02-0.312D-02-0.389D-02-0.196D-02 0.479D-01 0.675D-01
 Coeff-Com: -0.229D+00-0.471D+00 0.223D+00 0.137D+01
 Coeff:      0.146D-02-0.312D-02-0.389D-02-0.196D-02 0.479D-01 0.675D-01
 Coeff:     -0.229D+00-0.471D+00 0.223D+00 0.137D+01
 Gap=     0.230 Goal=   None    Shift=    0.000
 Gap=     0.230 Goal=   None    Shift=    0.000
 RMSDP=2.36D-05 MaxDP=1.44D-03 DE=-2.03D-05 OVMax= 6.72D-03

 Cycle  11  Pass 0  IDiag  1:
 RMSU=  1.11D-05    CP:  9.51D-01  1.53D+00  8.42D-01  9.64D-01  1.81D+00
                    CP:  2.64D+00  3.00D+00  3.00D+00  3.00D+00  1.82D+00
 E= -1413.62252779535     Delta-E=       -0.000009562567 Rises=F Damp=F
 DIIS: error= 1.26D-05 at cycle  11 NSaved=  11.
 NSaved=11 IEnMin=11 EnMin= -1413.62252779535     IErMin=11 ErrMin= 1.26D-05
 ErrMax= 1.26D-05  0.00D+00 EMaxC= 1.00D-01 BMatC= 3.08D-07 BMatP= 1.61D-06
 IDIUse=1 WtCom= 1.00D+00 WtEn= 0.00D+00
 Coeff-Com:  0.163D-02-0.324D-02-0.580D-02-0.101D-01 0.273D-01 0.901D-01
 Coeff-Com: -0.103D-01-0.251D+00-0.218D+00 0.420D+00 0.960D+00
 Coeff:      0.163D-02-0.324D-02-0.580D-02-0.101D-01 0.273D-01 0.901D-01
 Coeff:     -0.103D-01-0.251D+00-0.218D+00 0.420D+00 0.960D+00
 Gap=     0.230 Goal=   None    Shift=    0.000
 Gap=     0.230 Goal=   None    Shift=    0.000
 RMSDP=8.43D-06 MaxDP=5.27D-04 DE=-9.56D-06 OVMax= 2.40D-03

 Initial convergence to 1.0D-05 achieved.  Increase integral accuracy.
 Cycle  12  Pass 1  IDiag  1:
 E= -1413.62249130566     Delta-E=        0.000036489693 Rises=F Damp=F
 DIIS: error= 1.59D-04 at cycle   1 NSaved=   1.
 NSaved= 1 IEnMin= 1 EnMin= -1413.62249130566     IErMin= 1 ErrMin= 1.59D-04
 ErrMax= 1.59D-04  0.00D+00 EMaxC= 1.00D-01 BMatC= 1.19D-05 BMatP= 1.19D-05
 IDIUse=3 WtCom= 9.98D-01 WtEn= 1.59D-03
 Coeff-Com:  0.100D+01
 Coeff-En:   0.100D+01
 Coeff:      0.100D+01
 Gap=     0.230 Goal=   None    Shift=    0.000
 Gap=     0.230 Goal=   None    Shift=    0.000
 RMSDP=8.43D-06 MaxDP=5.27D-04 DE= 3.65D-05 OVMax= 1.98D-04

 Cycle  13  Pass 1  IDiag  1:
 RMSU=  9.30D-05    CP:  1.00D+00
 E= -1413.62249415806     Delta-E=       -0.000002852406 Rises=F Damp=F
 DIIS: error= 6.37D-06 at cycle   2 NSaved=   2.
 NSaved= 2 IEnMin= 2 EnMin= -1413.62249415806     IErMin= 2 ErrMin= 6.37D-06
 ErrMax= 6.37D-06  0.00D+00 EMaxC= 1.00D-01 BMatC= 9.55D-08 BMatP= 1.19D-05
 IDIUse=1 WtCom= 1.00D+00 WtEn= 0.00D+00
 Coeff-Com: -0.379D-01 0.104D+01
 Coeff:     -0.379D-01 0.104D+01
 Gap=     0.230 Goal=   None    Shift=    0.000
 Gap=     0.230 Goal=   None    Shift=    0.000
 RMSDP=5.67D-06 MaxDP=1.56D-04 DE=-2.85D-06 OVMax= 1.12D-04

 Cycle  14  Pass 1  IDiag  1:
 RMSU=  1.70D-06    CP:  1.00D+00  1.06D+00
 E= -1413.62249419189     Delta-E=       -0.000000033828 Rises=F Damp=F
 DIIS: error= 3.24D-06 at cycle   3 NSaved=   3.
 NSaved= 3 IEnMin= 3 EnMin= -1413.62249419189     IErMin= 3 ErrMin= 3.24D-06
 ErrMax= 3.24D-06  0.00D+00 EMaxC= 1.00D-01 BMatC= 5.57D-08 BMatP= 9.55D-08
 IDIUse=1 WtCom= 1.00D+00 WtEn= 0.00D+00
 Coeff-Com: -0.227D-01 0.466D+00 0.557D+00
 Coeff:     -0.227D-01 0.466D+00 0.557D+00
 Gap=     0.230 Goal=   None    Shift=    0.000
 Gap=     0.230 Goal=   None    Shift=    0.000
 RMSDP=4.80D-07 MaxDP=1.74D-05 DE=-3.38D-08 OVMax= 4.70D-05

 Cycle  15  Pass 1  IDiag  1:
 RMSU=  4.47D-07    CP:  1.00D+00  1.06D+00  1.02D+00
 E= -1413.62249420863     Delta-E=       -0.000000016742 Rises=F Damp=F
 DIIS: error= 1.18D-06 at cycle   4 NSaved=   4.
 NSaved= 4 IEnMin= 4 EnMin= -1413.62249420863     IErMin= 4 ErrMin= 1.18D-06
 ErrMax= 1.18D-06  0.00D+00 EMaxC= 1.00D-01 BMatC= 4.46D-09 BMatP= 5.57D-08
 IDIUse=1 WtCom= 1.00D+00 WtEn= 0.00D+00
 Coeff-Com: -0.702D-03-0.182D-01 0.133D+00 0.886D+00
 Coeff:     -0.702D-03-0.182D-01 0.133D+00 0.886D+00
 Gap=     0.230 Goal=   None    Shift=    0.000
 Gap=     0.230 Goal=   None    Shift=    0.000
 RMSDP=3.05D-07 MaxDP=1.50D-05 DE=-1.67D-08 OVMax= 6.93D-05

 Cycle  16  Pass 1  IDiag  1:
 RMSU=  2.37D-07    CP:  1.00D+00  1.06D+00  1.12D+00  1.17D+00
 E= -1413.62249421456     Delta-E=       -0.000000005930 Rises=F Damp=F
 DIIS: error= 9.09D-07 at cycle   5 NSaved=   5.
 NSaved= 5 IEnMin= 5 EnMin= -1413.62249421456     IErMin= 5 ErrMin= 9.09D-07
 ErrMax= 9.09D-07  0.00D+00 EMaxC= 1.00D-01 BMatC= 1.74D-09 BMatP= 4.46D-09
 IDIUse=1 WtCom= 1.00D+00 WtEn= 0.00D+00
 Coeff-Com:  0.390D-02-0.929D-01-0.511D-01 0.311D+00 0.829D+00
 Coeff:      0.390D-02-0.929D-01-0.511D-01 0.311D+00 0.829D+00
 Gap=     0.230 Goal=   None    Shift=    0.000
 Gap=     0.230 Goal=   None    Shift=    0.000
 RMSDP=2.28D-07 MaxDP=1.31D-05 DE=-5.93D-09 OVMax= 6.01D-05

 Cycle  17  Pass 1  IDiag  1:
 RMSU=  1.14D-07    CP:  1.00D+00  1.06D+00  1.16D+00  1.40D+00  1.66D+00
 E= -1413.62249421809     Delta-E=       -0.000000003532 Rises=F Damp=F
 DIIS: error= 7.11D-07 at cycle   6 NSaved=   6.
 NSaved= 6 IEnMin= 6 EnMin= -1413.62249421809     IErMin= 6 ErrMin= 7.11D-07
 ErrMax= 7.11D-07  0.00D+00 EMaxC= 1.00D-01 BMatC= 9.30D-10 BMatP= 1.74D-09
 IDIUse=1 WtCom= 1.00D+00 WtEn= 0.00D+00
 Coeff-Com:  0.200D-02-0.339D-01-0.741D-01-0.228D+00 0.379D+00 0.955D+00
 Coeff:      0.200D-02-0.339D-01-0.741D-01-0.228D+00 0.379D+00 0.955D+00
 Gap=     0.230 Goal=   None    Shift=    0.000
 Gap=     0.230 Goal=   None    Shift=    0.000
 RMSDP=2.40D-07 MaxDP=1.44D-05 DE=-3.53D-09 OVMax= 6.72D-05

 Cycle  18  Pass 1  IDiag  1:
 RMSU=  5.74D-08    CP:  1.00D+00  1.06D+00  1.19D+00  1.58D+00  2.49D+00
                    CP:  1.70D+00
 E= -1413.62249422072     Delta-E=       -0.000000002627 Rises=F Damp=F
 DIIS: error= 4.74D-07 at cycle   7 NSaved=   7.
 NSaved= 7 IEnMin= 7 EnMin= -1413.62249422072     IErMin= 7 ErrMin= 4.74D-07
 ErrMax= 4.74D-07  0.00D+00 EMaxC= 1.00D-01 BMatC= 3.70D-10 BMatP= 9.30D-10
 IDIUse=1 WtCom= 1.00D+00 WtEn= 0.00D+00
 Coeff-Com: -0.168D-02 0.461D-01 0.392D-02-0.302D+00-0.403D+00 0.379D+00
 Coeff-Com:  0.128D+01
 Coeff:     -0.168D-02 0.461D-01 0.392D-02-0.302D+00-0.403D+00 0.379D+00
 Coeff:      0.128D+01
 Gap=     0.230 Goal=   None    Shift=    0.000
 Gap=     0.230 Goal=   None    Shift=    0.000
 RMSDP=3.02D-07 MaxDP=1.82D-05 DE=-2.63D-09 OVMax= 8.54D-05

 Cycle  19  Pass 1  IDiag  1:
 RMSU=  1.26D-07    CP:  1.00D+00  1.06D+00  1.22D+00  1.80D+00  3.00D+00
                    CP:  2.83D+00  1.95D+00
 E= -1413.62249422262     Delta-E=       -0.000000001901 Rises=F Damp=F
 DIIS: error= 2.07D-07 at cycle   8 NSaved=   8.
 NSaved= 8 IEnMin= 8 EnMin= -1413.62249422262     IErMin= 8 ErrMin= 2.07D-07
 ErrMax= 2.07D-07  0.00D+00 EMaxC= 1.00D-01 BMatC= 9.68D-11 BMatP= 3.70D-10
 IDIUse=1 WtCom= 1.00D+00 WtEn= 0.00D+00
 Coeff-Com: -0.970D-03 0.216D-01 0.198D-01-0.210D-01-0.228D+00-0.110D+00
 Coeff-Com:  0.395D+00 0.923D+00
 Coeff:     -0.970D-03 0.216D-01 0.198D-01-0.210D-01-0.228D+00-0.110D+00
 Coeff:      0.395D+00 0.923D+00
 Gap=     0.230 Goal=   None    Shift=    0.000
 Gap=     0.230 Goal=   None    Shift=    0.000
 RMSDP=1.09D-07 MaxDP=6.47D-06 DE=-1.90D-09 OVMax= 3.09D-05

 Cycle  20  Pass 1  IDiag  1:
 RMSU=  3.83D-08    CP:  1.00D+00  1.06D+00  1.22D+00  1.88D+00  3.00D+00
                    CP:  3.00D+00  2.53D+00  1.63D+00
 E= -1413.62249422295     Delta-E=       -0.000000000327 Rises=F Damp=F
 DIIS: error= 1.08D-07 at cycle   9 NSaved=   9.
 NSaved= 9 IEnMin= 9 EnMin= -1413.62249422295     IErMin= 9 ErrMin= 1.08D-07
 ErrMax= 1.08D-07  0.00D+00 EMaxC= 1.00D-01 BMatC= 2.94D-11 BMatP= 9.68D-11
 IDIUse=1 WtCom= 1.00D+00 WtEn= 0.00D+00
 Coeff-Com:  0.460D-03-0.146D-01 0.448D-02 0.142D+00 0.930D-01-0.217D+00
 Coeff-Com: -0.464D+00 0.244D+00 0.121D+01
 Coeff:      0.460D-03-0.146D-01 0.448D-02 0.142D+00 0.930D-01-0.217D+00
 Coeff:     -0.464D+00 0.244D+00 0.121D+01
 Gap=     0.230 Goal=   None    Shift=    0.000
 Gap=     0.230 Goal=   None    Shift=    0.000
 RMSDP=9.43D-08 MaxDP=5.50D-06 DE=-3.27D-10 OVMax= 2.64D-05

 Cycle  21  Pass 1  IDiag  1:
 RMSU=  2.28D-08    CP:  1.00D+00  1.06D+00  1.23D+00  1.94D+00  3.00D+00
                    CP:  3.00D+00  3.00D+00  2.17D+00  2.10D+00
 E= -1413.62249422304     Delta-E=       -0.000000000088 Rises=F Damp=F
 DIIS: error= 5.00D-08 at cycle  10 NSaved=  10.
 NSaved=10 IEnMin=10 EnMin= -1413.62249422304     IErMin=10 ErrMin= 5.00D-08
 ErrMax= 5.00D-08  0.00D+00 EMaxC= 1.00D-01 BMatC= 4.96D-12 BMatP= 2.94D-11
 IDIUse=1 WtCom= 1.00D+00 WtEn= 0.00D+00
 Coeff-Com:  0.291D-03-0.763D-02-0.257D-02 0.430D-01 0.601D-01-0.349D-01
 Coeff-Com: -0.183D+00-0.117D+00 0.333D+00 0.909D+00
 Coeff:      0.291D-03-0.763D-02-0.257D-02 0.430D-01 0.601D-01-0.349D-01
 Coeff:     -0.183D+00-0.117D+00 0.333D+00 0.909D+00
 Gap=     0.230 Goal=   None    Shift=    0.000
 Gap=     0.230 Goal=   None    Shift=    0.000
 RMSDP=2.22D-08 MaxDP=1.18D-06 DE=-8.82D-11 OVMax= 5.74D-06

 Cycle  22  Pass 1  IDiag  1:
 RMSU=  9.16D-09    CP:  1.00D+00  1.06D+00  1.23D+00  1.96D+00  3.00D+00
                    CP:  3.00D+00  3.00D+00  2.29D+00  2.40D+00  1.27D+00
 E= -1413.62249422307     Delta-E=       -0.000000000033 Rises=F Damp=F
 DIIS: error= 2.11D-08 at cycle  11 NSaved=  11.
 NSaved=11 IEnMin=11 EnMin= -1413.62249422307     IErMin=11 ErrMin= 2.11D-08
 ErrMax= 2.11D-08  0.00D+00 EMaxC= 1.00D-01 BMatC= 1.10D-12 BMatP= 4.96D-12
 IDIUse=1 WtCom= 1.00D+00 WtEn= 0.00D+00
 Coeff-Com:  0.844D-05 0.403D-03-0.231D-02-0.158D-01 0.812D-04 0.369D-01
 Coeff-Com:  0.396D-01-0.106D+00-0.149D+00 0.357D+00 0.839D+00
 Coeff:      0.844D-05 0.403D-03-0.231D-02-0.158D-01 0.812D-04 0.369D-01
 Coeff:      0.396D-01-0.106D+00-0.149D+00 0.357D+00 0.839D+00
 Gap=     0.230 Goal=   None    Shift=    0.000
 Gap=     0.230 Goal=   None    Shift=    0.000
 RMSDP=7.30D-09 MaxDP=3.70D-07 DE=-3.32D-11 OVMax= 1.73D-06

 SCF Done:  E(UwB97XD) =  -1413.62249422     A.U. after   22 cycles
            NFock= 22  Conv=0.73D-08     -V/T= 2.0080
 <Sx>= 0.0000 <Sy>= 0.0000 <Sz>= 0.0000 <S**2>=-0.0000 S=-0.0000
 <L.S>=  0.00000000000    
 KE= 1.402417642570D+03 PE=-7.268776491925D+03 EE= 2.471529294413D+03
 Annihilation of the first spin contaminant:
 S**2 before annihilation    -0.0000,   after     0.0000
 Leave Link  502 at Thu Oct  9 17:56:09 2025, MaxMem=  5368709120 cpu:             746.9 elap:              76.5
 (Enter /prod/precompiled/gaussian/16c2/g16/l508.exe)
 QCSCF skips out because SCF is already converged.
 Leave Link  508 at Thu Oct  9 17:56:10 2025, MaxMem=  5368709120 cpu:               0.1 elap:               0.0
 (Enter /prod/precompiled/gaussian/16c2/g16/l801.exe)
 DoSCS=F DFT=T ScalE2(SS,OS)=  1.000000  1.000000
 Range of M.O.s used for correlation:     1   431
 NBasis=   431 NAE=    88 NBE=    88 NFC=     0 NFV=     0
 NROrb=    431 NOA=    88 NOB=    88 NVA=   343 NVB=   343

 **** Warning!!: The largest alpha MO coefficient is  0.15184229D+02


 **** Warning!!: The largest beta MO coefficient is  0.15184229D+02

 Leave Link  801 at Thu Oct  9 17:56:10 2025, MaxMem=  5368709120 cpu:               0.1 elap:               0.1
 (Enter /prod/precompiled/gaussian/16c2/g16/l1101.exe)
 Using compressed storage, NAtomX=    44.
 Will process     45 centers per pass.
   1 Symmetry operations used in ECPInt.
 ECPInt:  NShTT=   20706 NPrTT=   75450 LenC2=   17754 LenP2D=   43664.
 LDataN:  DoStor=T MaxTD1= 5 Len=  102
 R6Disp: Adding Grimme-D2 dispersion energy 1st derivatives to the gradient.
 Leave Link 1101 at Thu Oct  9 17:56:10 2025, MaxMem=  5368709120 cpu:               4.5 elap:               0.8
 (Enter /prod/precompiled/gaussian/16c2/g16/l1102.exe)
 Symmetrizing basis deriv contribution to polar:
 IMax=3 JMax=2 DiffMx= 0.00D+00
 Leave Link 1102 at Thu Oct  9 17:56:11 2025, MaxMem=  5368709120 cpu:               0.4 elap:               0.2
 (Enter /prod/precompiled/gaussian/16c2/g16/l1110.exe)
 Forming Gx(P) for the SCF density, NAtomX=    44.
 Integral derivatives from FoFJK, PRISM(SPDF).
 Do as many integral derivatives as possible in FoFJK.
 G2DrvN: MDV=    5368704452.
 G2DrvN: will do    45 centers at a time, making    1 passes.
 Calling FoFCou, ICntrl=  3107 FMM=F I1Cent=   0 AccDes= 0.00D+00.
 FoFJK:  IHMeth= 1 ICntrl=    3107 DoSepK=T KAlg= 0 I1Cent=           0 FoldK=F
 IRaf=         1 NMat=       1 IRICut=       1 DoRegI=T DoRafI=F ISym2E= 0 IDoP0=0 IntGTp=1.
 FoFCou: FMM=F IPFlag=           0 FMFlag=      100000 FMFlg1=         800
         NFxFlg=           0 DoJE=F BraDBF=F KetDBF=F FulRan=T
         wScrn=  0.000000 ICntrl=      3507 IOpCl=  0 I1Cent=           0 NGrid=           0
         NMat0=    1 NMatS0=      1 NMatT0=    0 NMatD0=    1 NMtDS0=    0 NMtDT0=    0
 Symmetry not used in FoFCou.
 End of G2Drv F.D. properties file   721 does not exist.
 End of G2Drv F.D. properties file   722 does not exist.
 End of G2Drv F.D. properties file   788 does not exist.
 Leave Link 1110 at Thu Oct  9 17:59:03 2025, MaxMem=  5368709120 cpu:            1676.1 elap:             172.4
 (Enter /prod/precompiled/gaussian/16c2/g16/l1002.exe)
 Minotr:  UHF open shell wavefunction.
          IDoAtm=11111111111111111111111111111111111111111111
          Direct CPHF calculation.
          Differentiating once with respect to electric field.
                with respect to dipole field.
          Differentiating once with respect to nuclear coordinates.
          Requested convergence is 1.0D-08 RMS, and 1.0D-07 maximum.
          Secondary convergence is 1.0D-12 RMS, and 1.0D-12 maximum.
          NewPWx=T KeepS1=F KeepF1=F KeepIn=T MapXYZ=F SortEE=F KeepMc=T.
        13330 words used for storage of precomputed grid.
 Two-electron integral symmetry not used.
          MDV=    5368709120 using IRadAn=       1.
          Solving linear equations simultaneously, MaxMat=     384.
 FoF2E skips out because all densities are zero.
 CalDSu exits because no D1Ps are significant.
 FoFJK:  IHMeth= 1 ICntrl=       0 DoSepK=T KAlg= 0 I1Cent=           0 FoldK=F
 IRaf=         1 NMat=     132 IRICut=       1 DoRegI=T DoRafI=F ISym2E= 0 IDoP0=3 IntGTp=3.
 FoFCou: FMM=F IPFlag=           0 FMFlag=      100000 FMFlg1=         800
         NFxFlg=           0 DoJE=F BraDBF=F KetDBF=F FulRan=T
         wScrn=  0.000000 ICntrl=       500 IOpCl=  0 I1Cent=           0 NGrid=           0
         NMat0=  132 NMatS0=    132 NMatT0=    0 NMatD0=  132 NMtDS0=    0 NMtDT0=    0
 Symmetry not used in FoFCou.
          There are   135 degrees of freedom in the 1st order CPHF.  IDoFFX=6 NUNeed=     3.
    132 vectors produced by pass  0 Test12= 6.04D-14 1.00D-09 XBig12= 3.43D+02 5.57D+00.
 AX will form   132 AO Fock derivatives at one time.
    132 vectors produced by pass  1 Test12= 6.04D-14 1.00D-09 XBig12= 3.44D+01 6.14D-01.
    132 vectors produced by pass  2 Test12= 6.04D-14 1.00D-09 XBig12= 1.27D+00 1.07D-01.
    132 vectors produced by pass  3 Test12= 6.04D-14 1.00D-09 XBig12= 2.08D-02 8.55D-03.
    132 vectors produced by pass  4 Test12= 6.04D-14 1.00D-09 XBig12= 1.66D-04 8.86D-04.
    132 vectors produced by pass  5 Test12= 6.04D-14 1.00D-09 XBig12= 9.07D-07 5.11D-05.
    106 vectors produced by pass  6 Test12= 6.04D-14 1.00D-09 XBig12= 4.94D-09 3.37D-06.
     53 vectors produced by pass  7 Test12= 6.04D-14 1.00D-09 XBig12= 2.30D-11 2.06D-07.
      3 vectors produced by pass  8 Test12= 6.04D-14 1.00D-09 XBig12= 9.86D-14 1.56D-08.
 InvSVY:  IOpt=1 It=  1 EMax= 1.07D-14
 Solved reduced A of dimension   954 with   135 vectors.
 FullF1:  Do perturbations      1 to       3.
 Isotropic polarizability for W=    0.000000      243.38 Bohr**3.
 End of Minotr F.D. properties file   721 does not exist.
 End of Minotr F.D. properties file   722 does not exist.
 End of Minotr F.D. properties file   788 does not exist.
 Leave Link 1002 at Thu Oct  9 18:06:00 2025, MaxMem=  5368709120 cpu:            4459.1 elap:             416.4
 (Enter /prod/precompiled/gaussian/16c2/g16/l601.exe)
 Copying SCF densities to generalized density rwf, IOpCl= 1 IROHF=0.

 **********************************************************************

            Population analysis using the SCF Density.

 **********************************************************************

 Alpha  occ. eigenvalues -- -101.69382 -19.25642 -14.50328 -14.46966 -14.46823
 Alpha  occ. eigenvalues --  -14.42365 -10.37719 -10.37438 -10.37190 -10.35785
 Alpha  occ. eigenvalues --  -10.33425 -10.32589 -10.32433 -10.32298 -10.32099
 Alpha  occ. eigenvalues --  -10.32037 -10.31005 -10.30916 -10.30869 -10.30821
 Alpha  occ. eigenvalues --  -10.30709 -10.28463 -10.28119  -9.60163  -7.35543
 Alpha  occ. eigenvalues --   -7.34571  -7.34553  -1.11263  -1.11191  -1.03826
 Alpha  occ. eigenvalues --   -0.99695  -0.98050  -0.96205  -0.95085  -0.89951
 Alpha  occ. eigenvalues --   -0.86829  -0.84827  -0.84399  -0.84081  -0.79466
 Alpha  occ. eigenvalues --   -0.78498  -0.77269  -0.72708  -0.72054  -0.69921
 Alpha  occ. eigenvalues --   -0.69009  -0.67240  -0.65973  -0.64281  -0.63081
 Alpha  occ. eigenvalues --   -0.61063  -0.59129  -0.58083  -0.57436  -0.55756
 Alpha  occ. eigenvalues --   -0.55643  -0.55150  -0.54514  -0.53826  -0.53251
 Alpha  occ. eigenvalues --   -0.52844  -0.51608  -0.51106  -0.51046  -0.50194
 Alpha  occ. eigenvalues --   -0.49908  -0.48635  -0.47718  -0.46964  -0.46240
 Alpha  occ. eigenvalues --   -0.45518  -0.45187  -0.44418  -0.44106  -0.43104
 Alpha  occ. eigenvalues --   -0.42402  -0.42300  -0.41998  -0.41239  -0.41205
 Alpha  occ. eigenvalues --   -0.40553  -0.36588  -0.35375  -0.33750  -0.32008
 Alpha  occ. eigenvalues --   -0.30121  -0.29609  -0.25913
 Alpha virt. eigenvalues --   -0.02910   0.04231   0.05394   0.05819   0.10796
 Alpha virt. eigenvalues --    0.11247   0.13318   0.13446   0.14776   0.14987
 Alpha virt. eigenvalues --    0.15753   0.16148   0.17380   0.18844   0.19470
 Alpha virt. eigenvalues --    0.19883   0.19958   0.20307   0.20844   0.21550
 Alpha virt. eigenvalues --    0.21923   0.22336   0.22750   0.23655   0.24170
 Alpha virt. eigenvalues --    0.24314   0.24603   0.25206   0.25771   0.27860
 Alpha virt. eigenvalues --    0.28517   0.29755   0.30634   0.31234   0.31889
 Alpha virt. eigenvalues --    0.32567   0.33541   0.34001   0.34889   0.35273
 Alpha virt. eigenvalues --    0.35979   0.36355   0.37141   0.37983   0.38263
 Alpha virt. eigenvalues --    0.38648   0.40458   0.42266   0.43481   0.45046
 Alpha virt. eigenvalues --    0.46609   0.47608   0.48846   0.48975   0.49054
 Alpha virt. eigenvalues --    0.50489   0.50642   0.51930   0.52319   0.53776
 Alpha virt. eigenvalues --    0.54484   0.54830   0.55077   0.55862   0.55928
 Alpha virt. eigenvalues --    0.56796   0.56981   0.57719   0.58428   0.60382
 Alpha virt. eigenvalues --    0.61669   0.61829   0.62387   0.62981   0.63381
 Alpha virt. eigenvalues --    0.64333   0.64821   0.65230   0.65848   0.66268
 Alpha virt. eigenvalues --    0.67117   0.68550   0.68928   0.69498   0.69887
 Alpha virt. eigenvalues --    0.70283   0.71090   0.71393   0.72063   0.72489
 Alpha virt. eigenvalues --    0.72518   0.73188   0.73716   0.73838   0.74491
 Alpha virt. eigenvalues --    0.74839   0.74948   0.75239   0.76063   0.76568
 Alpha virt. eigenvalues --    0.77134   0.77593   0.77992   0.78663   0.79244
 Alpha virt. eigenvalues --    0.79421   0.79590   0.79870   0.80270   0.80568
 Alpha virt. eigenvalues --    0.81421   0.81665   0.81919   0.81948   0.82719
 Alpha virt. eigenvalues --    0.83567   0.83878   0.84664   0.85396   0.85991
 Alpha virt. eigenvalues --    0.87112   0.87307   0.87909   0.88292   0.89062
 Alpha virt. eigenvalues --    0.89995   0.90611   0.90925   0.91479   0.92513
 Alpha virt. eigenvalues --    0.94371   0.94978   0.95827   0.96953   0.98658
 Alpha virt. eigenvalues --    0.98877   1.00166   1.02181   1.02375   1.03590
 Alpha virt. eigenvalues --    1.04143   1.06046   1.07275   1.08861   1.11040
 Alpha virt. eigenvalues --    1.11804   1.13623   1.13853   1.15247   1.17678
 Alpha virt. eigenvalues --    1.18621   1.19444   1.20475   1.22623   1.24066
 Alpha virt. eigenvalues --    1.24510   1.26200   1.27431   1.28157   1.29300
 Alpha virt. eigenvalues --    1.29796   1.30902   1.31838   1.32185   1.32493
 Alpha virt. eigenvalues --    1.34418   1.35522   1.35866   1.37357   1.37807
 Alpha virt. eigenvalues --    1.38371   1.39399   1.40321   1.41105   1.42397
 Alpha virt. eigenvalues --    1.43428   1.44646   1.45223   1.46940   1.51298
 Alpha virt. eigenvalues --    1.51898   1.52984   1.55070   1.55606   1.57026
 Alpha virt. eigenvalues --    1.59597   1.62831   1.63528   1.63946   1.64632
 Alpha virt. eigenvalues --    1.66588   1.68932   1.70764   1.73946   1.74437
 Alpha virt. eigenvalues --    1.74889   1.76467   1.76848   1.77226   1.78175
 Alpha virt. eigenvalues --    1.78819   1.79898   1.80619   1.81166   1.81982
 Alpha virt. eigenvalues --    1.83766   1.83946   1.83967   1.84576   1.85110
 Alpha virt. eigenvalues --    1.86264   1.86629   1.86734   1.86901   1.87713
 Alpha virt. eigenvalues --    1.88018   1.88404   1.88741   1.89966   1.90189
 Alpha virt. eigenvalues --    1.91148   1.91467   1.92222   1.92722   1.94119
 Alpha virt. eigenvalues --    1.94402   1.94709   1.96539   1.97563   1.99004
 Alpha virt. eigenvalues --    1.99837   2.00305   2.01099   2.01729   2.02653
 Alpha virt. eigenvalues --    2.03022   2.04685   2.04945   2.05111   2.06849
 Alpha virt. eigenvalues --    2.07620   2.07764   2.08500   2.09430   2.10654
 Alpha virt. eigenvalues --    2.12490   2.13346   2.15061   2.16054   2.17312
 Alpha virt. eigenvalues --    2.17922   2.18464   2.19434   2.20847   2.22040
 Alpha virt. eigenvalues --    2.22358   2.22744   2.23893   2.24947   2.25623
 Alpha virt. eigenvalues --    2.26665   2.28406   2.30001   2.30522   2.31451
 Alpha virt. eigenvalues --    2.33454   2.34946   2.35556   2.36550   2.37347
 Alpha virt. eigenvalues --    2.37854   2.38120   2.38547   2.39201   2.40475
 Alpha virt. eigenvalues --    2.42851   2.43327   2.43988   2.45109   2.45415
 Alpha virt. eigenvalues --    2.48515   2.50820   2.51339   2.54977   2.55361
 Alpha virt. eigenvalues --    2.56134   2.59582   2.60974   2.62243   2.63519
 Alpha virt. eigenvalues --    2.65722   2.66959   2.67813   2.68881   2.69416
 Alpha virt. eigenvalues --    2.70004   2.71428   2.72043   2.73173   2.77343
 Alpha virt. eigenvalues --    2.78632   2.79084   2.79982   2.82311   2.83667
 Alpha virt. eigenvalues --    2.86738   2.86917   2.89022   2.90748   2.93021
 Alpha virt. eigenvalues --    2.95236   2.95549   2.96292   2.97331   2.98718
 Alpha virt. eigenvalues --    2.99143   3.00488   3.01428   3.01884   3.04749
 Alpha virt. eigenvalues --    3.04841   3.06528   3.08739   3.09841   3.11369
 Alpha virt. eigenvalues --    3.13596   3.15102   3.16607   3.17743   3.20608
 Alpha virt. eigenvalues --    3.21994   3.24283   3.28179   3.30294   3.30805
 Alpha virt. eigenvalues --    3.41945   3.44942   3.49528   3.49878   3.54121
 Alpha virt. eigenvalues --    3.72372   3.83948   3.86148
  Beta  occ. eigenvalues -- -101.69382 -19.25642 -14.50328 -14.46966 -14.46823
  Beta  occ. eigenvalues --  -14.42365 -10.37719 -10.37438 -10.37190 -10.35785
  Beta  occ. eigenvalues --  -10.33425 -10.32589 -10.32433 -10.32298 -10.32099
  Beta  occ. eigenvalues --  -10.32037 -10.31005 -10.30916 -10.30869 -10.30821
  Beta  occ. eigenvalues --  -10.30709 -10.28463 -10.28119  -9.60163  -7.35543
  Beta  occ. eigenvalues --   -7.34571  -7.34553  -1.11263  -1.11191  -1.03826
  Beta  occ. eigenvalues --   -0.99695  -0.98050  -0.96205  -0.95085  -0.89951
  Beta  occ. eigenvalues --   -0.86829  -0.84827  -0.84399  -0.84081  -0.79466
  Beta  occ. eigenvalues --   -0.78498  -0.77269  -0.72708  -0.72054  -0.69921
  Beta  occ. eigenvalues --   -0.69009  -0.67240  -0.65973  -0.64281  -0.63081
  Beta  occ. eigenvalues --   -0.61063  -0.59129  -0.58083  -0.57436  -0.55756
  Beta  occ. eigenvalues --   -0.55643  -0.55150  -0.54514  -0.53826  -0.53251
  Beta  occ. eigenvalues --   -0.52844  -0.51608  -0.51106  -0.51046  -0.50194
  Beta  occ. eigenvalues --   -0.49908  -0.48635  -0.47718  -0.46964  -0.46240
  Beta  occ. eigenvalues --   -0.45518  -0.45187  -0.44418  -0.44106  -0.43104
  Beta  occ. eigenvalues --   -0.42402  -0.42300  -0.41998  -0.41239  -0.41205
  Beta  occ. eigenvalues --   -0.40553  -0.36588  -0.35375  -0.33750  -0.32008
  Beta  occ. eigenvalues --   -0.30121  -0.29609  -0.25913
  Beta virt. eigenvalues --   -0.02910   0.04231   0.05394   0.05819   0.10796
  Beta virt. eigenvalues --    0.11247   0.13318   0.13446   0.14776   0.14987
  Beta virt. eigenvalues --    0.15753   0.16148   0.17380   0.18844   0.19470
  Beta virt. eigenvalues --    0.19883   0.19958   0.20307   0.20844   0.21550
  Beta virt. eigenvalues --    0.21923   0.22336   0.22750   0.23655   0.24170
  Beta virt. eigenvalues --    0.24314   0.24603   0.25206   0.25771   0.27860
  Beta virt. eigenvalues --    0.28517   0.29755   0.30634   0.31234   0.31889
  Beta virt. eigenvalues --    0.32567   0.33541   0.34001   0.34889   0.35273
  Beta virt. eigenvalues --    0.35979   0.36355   0.37141   0.37983   0.38263
  Beta virt. eigenvalues --    0.38648   0.40458   0.42266   0.43481   0.45046
  Beta virt. eigenvalues --    0.46609   0.47608   0.48846   0.48975   0.49054
  Beta virt. eigenvalues --    0.50489   0.50642   0.51930   0.52319   0.53776
  Beta virt. eigenvalues --    0.54484   0.54830   0.55077   0.55862   0.55928
  Beta virt. eigenvalues --    0.56796   0.56981   0.57719   0.58428   0.60382
  Beta virt. eigenvalues --    0.61669   0.61829   0.62387   0.62981   0.63381
  Beta virt. eigenvalues --    0.64333   0.64821   0.65230   0.65848   0.66268
  Beta virt. eigenvalues --    0.67117   0.68550   0.68928   0.69498   0.69887
  Beta virt. eigenvalues --    0.70283   0.71090   0.71393   0.72063   0.72489
  Beta virt. eigenvalues --    0.72518   0.73188   0.73716   0.73838   0.74491
  Beta virt. eigenvalues --    0.74839   0.74948   0.75239   0.76063   0.76568
  Beta virt. eigenvalues --    0.77134   0.77593   0.77992   0.78663   0.79244
  Beta virt. eigenvalues --    0.79421   0.79590   0.79870   0.80270   0.80568
  Beta virt. eigenvalues --    0.81421   0.81665   0.81919   0.81948   0.82719
  Beta virt. eigenvalues --    0.83567   0.83878   0.84664   0.85396   0.85991
  Beta virt. eigenvalues --    0.87112   0.87307   0.87909   0.88292   0.89062
  Beta virt. eigenvalues --    0.89995   0.90611   0.90925   0.91479   0.92513
  Beta virt. eigenvalues --    0.94371   0.94978   0.95827   0.96953   0.98658
  Beta virt. eigenvalues --    0.98877   1.00166   1.02181   1.02375   1.03590
  Beta virt. eigenvalues --    1.04143   1.06046   1.07275   1.08861   1.11040
  Beta virt. eigenvalues --    1.11804   1.13623   1.13853   1.15247   1.17678
  Beta virt. eigenvalues --    1.18621   1.19444   1.20475   1.22623   1.24066
  Beta virt. eigenvalues --    1.24510   1.26200   1.27431   1.28157   1.29300
  Beta virt. eigenvalues --    1.29796   1.30902   1.31838   1.32185   1.32493
  Beta virt. eigenvalues --    1.34418   1.35522   1.35866   1.37357   1.37807
  Beta virt. eigenvalues --    1.38371   1.39399   1.40321   1.41105   1.42397
  Beta virt. eigenvalues --    1.43428   1.44646   1.45223   1.46940   1.51298
  Beta virt. eigenvalues --    1.51898   1.52984   1.55070   1.55606   1.57026
  Beta virt. eigenvalues --    1.59597   1.62831   1.63528   1.63946   1.64632
  Beta virt. eigenvalues --    1.66588   1.68932   1.70764   1.73946   1.74437
  Beta virt. eigenvalues --    1.74889   1.76467   1.76848   1.77226   1.78175
  Beta virt. eigenvalues --    1.78819   1.79898   1.80619   1.81166   1.81982
  Beta virt. eigenvalues --    1.83766   1.83946   1.83967   1.84576   1.85110
  Beta virt. eigenvalues --    1.86264   1.86629   1.86734   1.86901   1.87713
  Beta virt. eigenvalues --    1.88018   1.88404   1.88741   1.89966   1.90189
  Beta virt. eigenvalues --    1.91148   1.91467   1.92222   1.92722   1.94119
  Beta virt. eigenvalues --    1.94402   1.94709   1.96539   1.97563   1.99004
  Beta virt. eigenvalues --    1.99837   2.00305   2.01099   2.01729   2.02653
  Beta virt. eigenvalues --    2.03022   2.04685   2.04945   2.05111   2.06849
  Beta virt. eigenvalues --    2.07620   2.07764   2.08500   2.09430   2.10654
  Beta virt. eigenvalues --    2.12490   2.13346   2.15061   2.16054   2.17312
  Beta virt. eigenvalues --    2.17922   2.18464   2.19434   2.20847   2.22040
  Beta virt. eigenvalues --    2.22358   2.22744   2.23893   2.24947   2.25623
  Beta virt. eigenvalues --    2.26665   2.28406   2.30001   2.30522   2.31451
  Beta virt. eigenvalues --    2.33454   2.34946   2.35556   2.36550   2.37347
  Beta virt. eigenvalues --    2.37854   2.38120   2.38547   2.39201   2.40475
  Beta virt. eigenvalues --    2.42851   2.43327   2.43988   2.45109   2.45415
  Beta virt. eigenvalues --    2.48515   2.50820   2.51339   2.54977   2.55361
  Beta virt. eigenvalues --    2.56134   2.59582   2.60974   2.62243   2.63519
  Beta virt. eigenvalues --    2.65722   2.66959   2.67813   2.68881   2.69416
  Beta virt. eigenvalues --    2.70004   2.71428   2.72043   2.73173   2.77343
  Beta virt. eigenvalues --    2.78632   2.79084   2.79982   2.82311   2.83667
  Beta virt. eigenvalues --    2.86738   2.86917   2.89022   2.90748   2.93021
  Beta virt. eigenvalues --    2.95236   2.95549   2.96292   2.97331   2.98718
  Beta virt. eigenvalues --    2.99143   3.00488   3.01428   3.01884   3.04749
  Beta virt. eigenvalues --    3.04841   3.06528   3.08739   3.09841   3.11369
  Beta virt. eigenvalues --    3.13596   3.15102   3.16607   3.17743   3.20608
  Beta virt. eigenvalues --    3.21994   3.24283   3.28179   3.30294   3.30805
  Beta virt. eigenvalues --    3.41945   3.44942   3.49528   3.49878   3.54121
  Beta virt. eigenvalues --    3.72372   3.83948   3.86148
          Condensed to atoms (all electrons):
               1          2          3          4          5          6
     1  C    5.219708   0.099642  -0.078976   0.106651   0.002052  -0.127472
     2  C    0.099642   5.388609   0.474803   0.139822  -0.055265   0.121537
     3  N   -0.078976   0.474803   6.117842  -0.079352  -0.008771   0.004026
     4  C    0.106651   0.139822  -0.079352   5.382764   0.237759   0.307268
     5  Cl   0.002052  -0.055265  -0.008771   0.237759  16.934622  -0.056284
     6  C   -0.127472   0.121537   0.004026   0.307268  -0.056284   5.149366
     7  C    0.127449  -0.166554  -0.000146   0.115477   0.003011   0.132030
     8  C    0.010984  -0.002039   0.000003   0.012411  -0.000112  -0.070355
     9  O   -0.000129  -0.000018  -0.000000   0.000951   0.000000   0.010991
    10  C   -0.000505  -0.000076  -0.000000  -0.000454   0.000011  -0.024729
    11  N   -0.000370   0.000059  -0.000000  -0.000156  -0.000000   0.000559
    12  C    0.000008  -0.000001  -0.000000  -0.000018   0.000000  -0.000197
    13  C   -0.000005   0.000002   0.000000  -0.000009  -0.000001   0.000013
    14  C    0.000000  -0.000000   0.000000   0.000001   0.000000   0.000005
    15  C    0.263211   0.031633   0.004810  -0.131993   0.000510   0.042213
    16  N    0.423309  -0.105686  -0.015000   0.009962  -0.000023  -0.000985
    17  N   -0.036285   0.002239   0.000238  -0.000101   0.000000   0.000002
    18  C   -0.005436  -0.001755  -0.000035   0.000052  -0.000000  -0.000004
    19  C   -0.000335   0.000015   0.000000   0.000000   0.000000  -0.000000
    20  C    0.000017   0.000000  -0.000000  -0.000000  -0.000000   0.000000
    21  C   -0.000023  -0.000001  -0.000000   0.000000   0.000000  -0.000000
    22  C    0.000115   0.000008   0.000000  -0.000000  -0.000000   0.000001
    23  C   -0.001564  -0.000015  -0.000000  -0.000006   0.000000  -0.000020
    24  H    0.016287   0.007844   0.333580  -0.028653   0.024033  -0.000381
    25  H   -0.031320   0.002935   0.349278   0.014240  -0.000130  -0.000282
    26  H   -0.002442   0.017650  -0.000044  -0.065662   0.003083   0.451653
    27  H    0.000903   0.000003  -0.000000  -0.000155   0.000001   0.015924
    28  H   -0.000310  -0.000006   0.000000  -0.000382   0.000003  -0.002631
    29  H    0.000013   0.000000   0.000000  -0.000021  -0.000000  -0.000310
    30  H   -0.000050   0.000071   0.000000   0.000437  -0.000044   0.011464
    31  H   -0.000358   0.000066   0.000000  -0.000378  -0.000003   0.002077
    32  H    0.000000   0.000000  -0.000000  -0.000001  -0.000000  -0.000000
    33  H   -0.000001   0.000002  -0.000000   0.000032   0.000007   0.000312
    34  H    0.000000  -0.000000  -0.000000  -0.000000   0.000000   0.000004
    35  H    0.000000  -0.000001   0.000000  -0.000011   0.000002  -0.000097
    36  H   -0.000001   0.000000   0.000000   0.000000   0.000000  -0.000000
    37  H   -0.000000   0.000000   0.000000   0.000000  -0.000000  -0.000000
    38  H    0.000004   0.000000  -0.000000  -0.000001  -0.000000  -0.000007
    39  H   -0.067520   0.017237  -0.000031  -0.002992   0.000006   0.016734
    40  H    0.000032   0.000007   0.000001  -0.000000   0.000000   0.000000
    41  H   -0.000000   0.000000   0.000000  -0.000000   0.000000  -0.000000
    42  H    0.000000   0.000000   0.000000  -0.000000  -0.000000   0.000000
    43  H    0.000020   0.000001   0.000000  -0.000000   0.000000   0.000000
    44  H   -0.001552   0.000339  -0.000000  -0.000011   0.000000  -0.000078
               7          8          9         10         11         12
     1  C    0.127449   0.010984  -0.000129  -0.000505  -0.000370   0.000008
     2  C   -0.166554  -0.002039  -0.000018  -0.000076   0.000059  -0.000001
[...]
 839,0.00003313,0.00003569,-0.00004286,0.00000849,-0.00004185,0.0000376
 1,-0.00000108,-0.00001073,0.00001068,0.00002116,-0.00000659,0.00000617
 ,-0.00005045,0.00000084,-0.00001230,0.00004435,-0.00000106,0.00000043,
 -0.00001197,0.00000143,-0.00000028,-0.00000847,0.00003387,-0.00004347,
 -0.00006510,-0.00058543,-0.00023635,0.00004090,-0.00030828,0.00070470,
 0.00024794,0.00091918,-0.00400657,0.00061631,-0.01137274,0.00350991,0.
 00652554,-0.31796792,-0.00051896,0.08952756,-0.00552360,-0.00360466,0.
 00153757,0.00149925,0.00131307,0.00240797,0.00055934,-0.00001584,-0.00
 045203,0.00000080,0.00001596,-0.00001656,-0.00001726,0.00001904,-0.000
 01501,0.00000311,-0.00000050,0.00000258,-0.00000012,0.00000574,-0.0000
 0094,0.00001402,-0.00001949,-0.00000963,-0.00000357,0.00000642,-0.0000
 0749,0.00000437,-0.00000210,-0.00000083,0.00000869,0.00000529,0.000020
 23,-0.00000244,0.00000210,-0.00000417,-0.00000049,0.00000034,0.0000032
 1,-0.00000321,0.00000021,-0.00000635,0.00000436,0.00000026,0.00000244,
 -0.00000109,-0.00000064,0.00000665,-0.00000245,0.00000124,-0.00000681,
 -0.00000042,-0.00000100,0.00000385,0.00001534,-0.00000479,0.00001623,0
 .00037154,0.00060225,-0.00126249,0.33264954,0.00014998,-0.00009354,-0.
 00005810,-0.00016770,0.00006936,0.00004279,0.00008157,-0.00007355,0.00
 004307,0.00011031,0.00000753,-0.00001155,-0.00001534,-0.00002314,0.000
 00628,-0.00006111,0.00006614,-0.00001278,-0.00004671,-0.00004842,0.000
 01578,0.00000899,-0.00002491,0.00000256,-0.00001402,0.00001952,0.00000
 127,-0.00000203,0.00000405,0.00000461,-0.00000296,0.00000250,-0.000012
 56,0.00000166,-0.00000279,0.00001013,-0.00000126,0.00000037,-0.0000025
 9,-0.00000080,0.00000065,-0.00000115,0.00002142,-0.00001354,-0.0000262
 4,-0.00075615,-0.00032581,0.00021189,-0.00078625,0.00061512,0.00022831
 ,-0.00284498,-0.00269090,-0.00345710,-0.02430696,0.00516510,0.00831414
 ,-0.00052065,-0.05661395,-0.00732439,0.02432970,0.00493582,-0.00748687
 ,0.00079046,-0.00267726,-0.00460268,-0.00012804,-0.00121381,-0.0001323
 7,-0.00000223,0.00000781,-0.00001175,-0.00001675,0.00000915,-0.0000167
 5,0.00000237,0.00000084,0.00000075,0.00000021,0.00000616,-0.00000167,0
 .00000368,-0.00001125,-0.00000504,-0.00000137,0.00000252,-0.00000303,0
 .00000222,-0.00000033,0.00000137,0.00000326,0.00000201,0.00000737,-0.0
 0000095,0.00000062,-0.00000154,0.00000013,-0.00000009,0.00000105,-0.00
 000059,0.00000029,-0.00000169,0.00000062,-0.00000032,0.00000079,0.0000
 0013,-0.00000098,-0.00000037,0.00000012,0.00000086,-0.00000111,0.00000
 015,0.,0.00000136,-0.00000412,0.00000153,-0.00000518,0.00102517,0.0001
 0290,0.00163384,0.00171347,0.05275396,0.00011223,0.00000486,-0.0000566
 6,0.00005632,-0.00007422,0.00003221,-0.00006292,0.00005074,-0.00004081
 ,-0.00004483,-0.00001724,0.00001482,0.00000403,0.00001115,-0.00000524,
 0.00002029,-0.00003618,0.00000637,0.00003350,0.00003565,-0.00002338,-0
 .00000953,0.00000290,0.00000485,0.00001029,-0.00000416,-0.00000610,-0.
 00000462,-0.00000082,0.00000253,0.00000938,0.00000271,-0.00000060,-0.0
 0000583,-0.00000146,0.00000101,0.00000204,0.00000061,-0.00000131,0.000
 00059,0.00000021,-0.00000240,-0.00007495,0.00002503,0.00000837,-0.0002
 4534,0.00008920,-0.00018785,-0.00015682,-0.00018535,0.00031303,0.00108
 106,-0.00323100,0.00584703,-0.00582459,-0.00077374,0.00561905,0.089520
 09,-0.00727914,-0.07164501,0.01380551,0.00151510,0.00037408,0.00217704
 ,-0.00474506,0.00436964,-0.00057102,-0.00008846,-0.00066446,0.00000013
 ,-0.00000406,0.00001162,0.00001559,0.00000546,0.00001576,-0.00000059,-
 0.00000010,0.00000268,0.00000093,0.00000007,0.00000009,-0.00000366,0.0
 0000291,0.00000343,0.00000025,-0.00000132,0.00000091,0.00000110,0.0000
 0147,-0.00000113,-0.00000327,-0.00000234,-0.00000104,0.00000128,-0.000
 00072,-0.00000054,-0.00000052,-0.00000028,0.00000018,-0.00000062,-0.00
 000022,0.00000085,0.00000165,0.00000068,-0.00000087,-0.00000047,0.0000
 0288,0.00000199,-0.00000013,-0.00000015,0.00000016,-0.00000106,-0.0000
 0274,-0.00000019,0.00000953,-0.00000206,0.00000675,-0.00106460,0.00174
 014,-0.00327707,-0.09786141,0.01084430,0.06316795,0.00019992,0.0000971
 2,0.00002527,-0.00007365,0.00001184,0.00003071,0.00002694,-0.00003582,
 0.00001962,0.00007375,0.00000660,-0.00001734,-0.00001462,-0.00002325,0
 .00000906,-0.00003737,0.00004865,-0.00000724,-0.00002664,-0.00004871,0
 .00001195,0.00002297,-0.00003032,-0.00000275,-0.00002654,0.00002505,0.
 00000270,-0.00000630,0.00000570,0.00001256,-0.00000393,0.00000800,-0.0
 0002636,0.00000019,-0.00000987,0.00002344,-0.00000021,0.00000054,-0.00
 000703,-0.00000119,-0.00000303,-0.00000600,0.00003160,0.00003267,-0.00
 003399,-0.00012914,-0.00026866,-0.00012229,-0.00010255,0.00008350,-0.0
 0034199,-0.00055702,0.00108317,0.00059088,0.00052132,0.00159817,0.0028
 7465,0.01036875,0.01104867,0.00297507,-0.15540218,-0.13522202,-0.02248
 948,-0.01004410,-0.02447666,-0.00624259,-0.00422050,0.00014890,0.00367
 795,-0.00000024,0.00000624,-0.00000563,-0.00000187,0.00001134,-0.00000
 586,0.00000005,-0.00000357,0.00000090,0.00000183,0.00000226,0.00000033
 ,0.00000899,-0.00001404,-0.00000562,-0.00000389,0.00000377,-0.00000576
 ,0.00000207,-0.00000055,-0.00000070,0.00000608,0.00000393,0.00001157,-
 0.00000353,0.00000249,-0.00000211,-0.00000039,0.00000134,0.00000152,-0
 .00000157,-0.00000035,-0.00000331,0.00000239,0.00000025,0.00000145,0.0
 0000084,-0.00000176,0.00000397,-0.00000099,0.00000016,-0.00000377,0.00
 000055,0.00000280,0.00000199,0.00002507,-0.00002557,0.00002757,0.00036
 269,0.00049713,0.00010260,0.00020890,0.00023448,-0.00133549,0.15886482
 ,0.00000647,0.00004197,-0.00008795,-0.00005460,0.00005809,0.00003225,0
 .00004151,-0.00005222,0.00002832,0.00006082,0.00002323,-0.00001657,-0.
 00001586,-0.00002439,0.00000897,-0.00004227,0.00003122,-0.00000447,-0.
 00002345,-0.00002587,0.00000823,0.00002203,-0.00001970,-0.00000040,-0.
 00002637,0.00001782,0.00000665,0.00000001,0.00000446,0.00000564,-0.000
 01079,0.00000007,-0.00001883,0.00000439,-0.00000355,0.00001725,-0.0000
 0158,-0.00000068,-0.00000385,0.00000093,-0.00000111,-0.00000209,-0.000
 00195,-0.00003581,-0.00004307,-0.00009141,-0.00003574,0.00013804,0.000
 06026,-0.00008776,0.00032178,0.00104209,0.00015261,-0.00004017,0.00197
 973,-0.00168614,-0.00460971,-0.01677810,-0.01272873,-0.00217978,-0.135
 20765,-0.23847759,-0.04439047,0.00333839,0.00422907,-0.00109319,-0.000
 21284,0.00226535,-0.00197501,0.00000067,0.00000879,-0.00001018,-0.0000
 0165,0.00001185,-0.00001176,0.00000113,-0.00000037,0.00000161,-0.00000
 064,0.00000151,-0.00000090,0.00000752,-0.00000918,-0.00000672,-0.00000
 191,0.00000332,-0.00000344,0.00000033,-0.00000206,0.00000026,0.0000068
 3,0.00000414,0.00000848,-0.00000215,0.00000158,-0.00000118,0.00000014,
 0.00000056,0.00000112,-0.00000093,0.00000027,-0.00000322,0.00000047,-0
 .00000030,0.00000158,-0.00000009,-0.00000272,0.00000190,-0.00000167,0.
 00000071,-0.00000320,0.00000075,0.00000222,0.00000210,0.00000829,0.000
 00124,0.00001126,-0.00073076,-0.00065196,-0.00005572,0.00061024,0.0000
 5958,0.00171618,0.14550067,0.24701876,0.00012112,-0.00003175,0.0001604
 9,-0.00008874,-0.00001906,0.00001834,0.00002249,0.00000581,-0.00000079
 ,0.00006606,-0.00001719,-0.00001136,0.00000078,0.00000253,-0.00000176,
 -0.00002055,0.00006712,-0.00001804,-0.00005792,-0.00004472,0.00003300,
 -0.00000215,-0.00001052,0.00000509,0.00000326,0.00000759,-0.00001136,-
 0.00000947,0.00000317,0.00000894,0.00001027,0.00000673,-0.00001436,-0.
 00000497,-0.00000508,0.00001278,0.00000181,0.00000010,-0.00000452,-0.0
 0000056,-0.00000370,-0.00000509,0.00007046,0.00002169,0.00002068,-0.00
 017809,0.00004401,-0.00013662,-0.00031362,0.00037545,-0.00084883,0.000
 61051,-0.00014717,-0.00053371,0.00301847,-0.00449711,0.00433064,-0.009
 37192,-0.01104070,0.00252915,-0.02245037,-0.04446809,-0.05206053,0.006
 07715,0.00792226,0.00578388,0.00352854,-0.00209453,0.00479255,0.000001
 62,0.00000109,-0.00000026,0.00000559,-0.00001007,0.00000073,0.00000090
 ,-0.00000042,-0.00000383,0.00000079,0.00000399,0.00000086,0.00000194,-
 0.00000411,0.00000197,-0.00000098,0.00000129,-0.00000172,0.00000365,0.
 00000127,-0.00000076,-0.00000082,-0.00000164,0.00000410,-0.00000096,0.
 00000056,-0.00000101,-0.00000064,0.00000066,0.00000091,-0.00000122,-0.
 00000020,-0.00000115,0.00000277,0.00000089,0.00000019,-0.00000008,0.00
 000201,0.00000357,-0.00000037,0.00000011,-0.00000185,-0.00000014,-0.00
 000007,0.00000048,-0.00000290,-0.00000593,-0.00002006,-0.00043528,-0.0
 0044646,-0.00001858,-0.00117812,0.00183941,-0.00307879,0.02172726,0.05
 061840,0.04197121,0.00019305,0.00000710,-0.00002232,-0.00006372,-0.000
 01223,0.00005044,0.00001965,0.00000244,0.00000047,0.00005142,-0.000011
 54,0.00000129,0.00000117,0.00000861,-0.00000769,-0.00004257,0.00004332
 ,-0.00000628,-0.00002810,-0.00001049,0.00001859,-0.00003019,-0.0000496
 1,0.00000572,0.00001721,0.00002759,-0.00000727,-0.00000444,0.00000389,
 -0.00000416,0.00001575,0.00001066,0.00001410,-0.00000657,0.00000064,-0
 .00001190,0.00000213,-0.00000028,0.00000184,-0.00000200,-0.00000370,-0
 .00000052,-0.00001096,-0.00000389,0.00000131,-0.00009026,0.00022637,0.
 00023031,0.00062321,-0.00091166,-0.00085899,-0.00125594,-0.00385498,0.
 00133612,-0.00087976,-0.00073633,-0.00029883,-0.00457575,-0.00149314,0
 .00306954,-0.00448611,0.02469180,0.01382387,-0.09626801,0.08185600,0.0
 5503413,0.01039302,-0.01622406,-0.00920746,0.00000037,0.00000074,-0.00
 000080,0.00000403,0.00000163,-0.00000503,0.00000220,-0.00000102,-0.000
 00231,0.00000379,0.00002084,-0.00000639,-0.00000935,-0.00001765,0.0000
 0081,-0.00000217,0.00000010,-0.00000210,0.00000639,0.00000460,0.000005
 04,-0.00000239,-0.00000390,0.00000110,-0.00000081,0.00000052,-0.000000
 66,-0.00000049,0.00000099,-0.00000003,0.00000063,0.00000019,0.00000230
 ,0.00000025,0.00000031,-0.00000105,0.00000161,0.00000230,-0.00000227,0
 .00000146,0.00000064,0.00000266,-0.00000036,0.00000068,-0.00000028,0.0
 0000083,-0.00000892,-0.00002797,-0.00002264,0.00013958,-0.00023097,-0.
 00037664,0.00111153,0.00062664,0.00047592,0.00033036,-0.00134671,0.096
 02040,0.00029590,0.00006635,-0.00006466,-0.00023197,0.00010527,0.00012
 543,0.00011854,-0.00009669,0.00006586,0.00020346,0.00000880,-0.0000312
 0,-0.00003012,-0.00003700,0.00001058,-0.00012014,0.00015196,-0.0000320
 9,-0.00013367,-0.00008423,0.00005658,0.00001057,-0.00008624,0.00000083
 ,-0.00003132,0.00006065,0.00000821,-0.00000657,0.00001229,0.00000637,0
 .00000096,0.00001215,-0.00001470,-0.00000053,-0.00000576,0.00001501,0.
 00000008,-0.00000117,-0.00000463,-0.00000176,-0.00000619,-0.00000433,0
 .00005248,-0.00006887,-0.00005000,-0.00032312,0.00035828,0.00011651,0.
 00121328,-0.00093849,-0.00075271,-0.00463301,-0.00128056,-0.00248249,-
 0.00067575,0.00007990,0.00061697,-0.00091610,0.00237524,-0.00174942,-0
 .00318889,0.00395541,0.00095500,0.08194687,-0.23965569,-0.11595163,0.0
 1112631,-0.01353435,-0.01159563,0.00000110,0.00001449,-0.00002348,-0.0
 0000262,0.00002257,-0.00003325,0.00000339,-0.00000142,-0.00000188,0.00
 000282,0.00002528,-0.00000749,0.00000235,-0.00003534,-0.00001530,-0.00
 000525,0.00000591,-0.00000873,0.00000782,0.00000137,0.00000565,0.00000
 776,0.00000180,0.00001488,-0.00000431,0.00000320,-0.00000256,-0.000000
 45,0.00000209,0.00000168,-0.00000073,0.00000044,-0.00000255,0.00000118
 ,-0.00000011,0.00000147,0.00000147,-0.00000143,0.00000027,-0.00000025,
 0.00000158,-0.00000194,0.00000063,0.00000431,0.00000261,0.00001647,-0.
 00000752,-0.00001691,0.00013090,-0.00017882,0.00029874,-0.00014126,0.0
 0006932,0.00003850,0.00071252,-0.00016072,0.00152340,-0.08612153,0.248
 70276,0.00017959,0.00003375,0.00000104,-0.00012683,0.00002686,0.000060
 13,0.00005848,-0.00003708,0.00001486,0.00012004,-0.00000004,-0.0000230
 7,-0.00000656,-0.00000627,-0.00000221,-0.00007447,0.00009414,-0.000015
 47,-0.00005144,-0.00005963,0.00003247,-0.00001261,-0.00006643,0.000015
 89,0.00000004,0.00004323,-0.00002273,-0.00002135,0.00000530,0.00002002
 ,0.00002831,0.00002698,-0.00002253,-0.00001033,-0.00001334,0.00001816,
 0.00000331,0.00000051,-0.00000833,-0.00000728,-0.00001274,-0.00001048,
 0.00005941,-0.00001105,-0.00003457,-0.00011792,-0.00017497,0.00032590,
 0.00010765,0.00018669,-0.00071590,0.00076738,-0.00278763,0.00662910,-0
 .00012514,0.00070423,-0.00046121,0.00331441,-0.00158186,0.00511859,0.0
 0132428,-0.00806290,0.00011138,0.05513808,-0.11591569,-0.10934055,0.00
 309941,-0.00287122,0.00215804,0.00000349,0.00000721,-0.00000472,-0.000
 00706,-0.00000249,-0.00000332,0.00000393,-0.00000215,-0.00000186,0.000
 00496,0.00001816,0.00000078,0.00000548,-0.00002207,0.00000244,-0.00000
 589,0.00000385,-0.00000692,0.00001060,0.00000539,0.00000024,-0.0000002
 6,-0.00000420,0.00001293,-0.00000562,0.00000311,-0.00000297,-0.0000012
 0,0.00000298,0.00000190,-0.00000139,-0.00000038,-0.00000154,0.00000511
 ,0.00000159,0.00000068,0.00000297,0.00000287,0.00000193,0.00000260,0.0
 0000128,-0.00000119,0.00000087,0.00000449,0.00000101,-0.00000748,-0.00
 002538,0.00000456,-0.00022669,0.00027974,-0.00072478,0.00008898,-0.000
 37904,-0.00009793,-0.00117880,0.00163790,-0.00298983,-0.06099207,0.127
 10643,0.10336287,0.00027944,-0.00034046,-0.00007978,0.00011334,-0.0001
 2073,0.00014222,-0.00010298,0.00011096,-0.00008657,0.00005065,-0.00009
 616,-0.00001761,0.00004102,0.00009069,-0.00003790,-0.00000908,0.000171
 00,-0.00004575,-0.00029785,0.00000660,0.00014393,-0.00005642,0.0000362
 2,0.00002232,0.00006882,-0.00003673,-0.00002400,0.00001965,-0.00000658
 ,-0.00003854,0.00000190,-0.00002604,0.00005115,0.00000527,0.00001996,-
 0.00004022,0.00000047,-0.00000229,0.00001415,0.00000643,0.00000525,0.0
 0000748,-0.00056232,-0.00051722,-0.00002075,0.00112807,-0.00252336,-0.
 00150553,-0.00341158,-0.00053145,-0.00061660,-0.00662089,-0.00001609,0
 .00380138,0.00120639,0.00119502,0.00207661,0.00057725,-0.00007064,-0.0
 0054892,0.00058262,-0.00362664,0.00074077,-0.00985075,0.00330342,0.006
 48972,-0.31655489,-0.00221874,0.09009362,-0.00000204,0.00000033,0.0000
 1499,0.00001990,0.00002242,0.00002215,0.00000625,0.00001127,-0.0000143
 2,0.00000475,0.00000661,-0.00000163,-0.00001548,0.00001538,0.00001747,
 0.00000710,-0.00000433,0.00001174,0.00000345,0.00000423,0.00000734,0.0
 0000461,0.00000081,-0.00002047,0.00000334,-0.00000243,0.00000509,0.000
 00023,-0.00000083,-0.00000263,0.00000276,0.00000095,0.00000557,-0.0000
 0460,-0.00000084,-0.00000276,0.,-0.00000319,-0.00000189,-0.00000413,-0
 .00000148,0.00000313,-0.00000018,0.00000076,0.00000049,-0.00057866,0.0
 0001868,-0.00066687,-0.00031693,-0.00028525,0.00012549,-0.00013692,0.0
 0008934,-0.00021718,-0.00054722,0.00018261,0.00019112,0.00032476,0.000
 71251,-0.00134899,0.33461443,-0.00275440,-0.00177549,-0.00031537,0.000
 28638,0.00008817,-0.00013646,-0.00002402,0.00012127,-0.00013205,-0.000
 32877,-0.00001641,0.00001196,0.00007399,0.00009491,-0.00002432,0.00018
 184,-0.00018554,0.00003580,0.00012159,0.00009982,0.00001189,0.00000797
 ,0.00023507,-0.00001130,0.00006149,-0.00014986,0.00000617,0.00003392,-
 0.00004141,-0.00004391,-0.00002793,-0.00004233,0.00005859,0.00000745,0
 .00001957,-0.00004719,-0.00000175,0.00000062,0.00001528,0.00000757,0.0
 0001506,0.00001500,-0.00013662,-0.00013592,-0.00009918,0.00117002,0.00
 065878,0.00064291,-0.00033105,-0.00026433,0.00166197,0.02319439,0.0081
 3094,-0.00625926,0.00021817,-0.00332700,-0.00429261,-0.00000985,-0.000
 95640,-0.00002165,-0.00315517,-0.00248732,-0.00355676,-0.02368354,0.00
 512384,0.00782755,-0.00038616,-0.05581656,-0.00684630,0.00001267,-0.00
 002830,0.00002330,-0.00000066,-0.00010274,0.00004064,0.00000008,0.0000
 1337,0.00000175,-0.00000493,-0.00006511,0.00001276,-0.00001135,0.00008
 081,0.00001818,0.00001591,-0.00001303,0.00002541,-0.00002110,-0.000005
 21,-0.00000732,-0.00001106,-0.00000251,-0.00004140,0.00000957,-0.00000
 686,0.00000835,0.00000193,-0.00000447,-0.00000485,0.00000297,-0.000000
 75,0.00000653,-0.00000711,-0.00000068,-0.00000315,-0.00000343,-0.00000
 274,-0.00000147,-0.00000167,-0.00000342,0.00000550,0.00000003,-0.00000
 579,-0.00000514,-0.00025722,0.00023994,-0.00003491,0.00126245,0.000039
 00,-0.00048081,0.00010321,-0.00008912,0.00036010,-0.00101379,0.0000681
 6,0.00039898,0.00097150,0.00013914,0.00183984,0.00442646,0.05036087,0.
 00002310,-0.00077106,0.00027551,-0.00001547,-0.00019082,0.00015693,-0.
 00016475,0.00026258,-0.00020685,-0.00006633,-0.00013873,0.00001641,0.0
 0003528,0.00009211,-0.00003635,0.00017709,0.00003023,-0.00005750,-0.00
 007796,0.00027637,-0.00002363,-0.00012147,0.00006619,0.00007823,0.0001
 1807,-0.00005358,-0.00007884,-0.00003754,-0.00001057,0.00001631,0.0001
 3095,-0.00000280,0.00008057,-0.00001245,0.00003264,-0.00008139,0.00000
 930,-0.00000446,0.00002212,-0.00000802,-0.00001410,0.00000653,-0.00007
 727,-0.00067828,0.00052553,-0.00105731,0.00131287,-0.00070307,-0.00019
 494,0.00157085,-0.00223364,0.01395096,0.00192233,0.00136135,0.00174582
 ,-0.00436994,0.00347730,-0.00048676,-0.00016910,-0.00084095,0.00075425
 ,-0.00335975,0.00585269,-0.00584511,-0.00090633,0.00609273,0.09137505,
 -0.00659245,-0.07209283,0.00000072,-0.00001184,0.00003409,0.00005651,-
 0.00002705,0.00007548,0.00000548,0.00002351,-0.00002795,-0.00000731,0.
 00001135,0.00002536,-0.00000126,0.00003126,0.00004017,0.00001098,-0.00
 000903,0.00001008,0.00002300,0.00001608,-0.00000898,-0.00004458,-0.000
 04157,-0.00003645,0.00000765,-0.00000662,0.00000625,-0.00000194,0.0000
 0025,-0.00000377,0.00000598,0.00000236,0.00001306,0.00000144,0.0000023
 4,-0.00000547,0.00000085,0.00002081,-0.00001451,0.00000981,-0.00000016
 ,0.00001346,-0.00000217,-0.00000644,-0.00000917,-0.00063770,0.00017019
 ,-0.00045171,0.00075217,-0.00003160,0.00000613,-0.00021399,0.00034449,
 -0.00071400,-0.00028890,-0.00000605,0.00008523,-0.00118221,0.00187659,
 -0.00340283,-0.09864899,0.00933695,0.06275837\\0.00000022,0.00000118,-
 0.00000037,-0.00000164,0.00000132,0.00000105,0.00001315,-0.00000811,-0
 .00000989,0.00000100,-0.00000042,0.00000075,-0.00000043,-0.00000158,0.
 00000147,-0.00000089,-0.00000075,0.00000076,0.00000042,0.00000127,-0.0
 0000065,-0.00000027,0.00000044,0.00000006,-0.00000013,-0.00000014,-0.0
 0000019,-0.00000015,0.00000020,0.00000092,-0.00000058,0.00000030,-0.00
 000086,-0.00000083,0.00000028,0.00000134,0.00000143,-0.00000071,-0.000
 00098,0.00000085,-0.00000076,-0.00000197,0.00000013,0.00000012,-0.0000
 0040,0.00000020,0.00000040,-0.00000076,0.00000008,0.00000147,-0.000000
 20,-0.00000105,0.00000008,0.00000032,0.00000004,-0.00000087,-0.0000001
 0,-0.00000020,0.00000163,0.00000055,0.00000079,-0.00000101,-0.00000058
 ,-0.00000030,0.00000073,0.00000005,-0.00000020,-0.00000185,-0.00000062
 ,0.00000041,0.00000391,0.00000016,-0.00001221,0.00000177,0.00000862,-0
 .00000029,-0.00000027,0.00000057,-0.00000017,0.00000007,0.00000022,-0.
 00000022,-0.00000019,0.00000012,-0.00000034,0.00000034,0.00000029,-0.0
 0000059,-0.00000086,-0.00000028,-0.00000010,0.00000053,-0.00000053,0.0
 0000088,-0.00000122,0.00000096,-0.00000076,0.00000110,-0.00000061,0.00
 000088,-0.00000077,0.00000084,-0.00000009,0.00000023,0.00000086,-0.000
 00080,-0.00000031,-0.00000017,0.00000103,-0.00000095,0.00000063,-0.000
 00060,0.00000133,-0.00000060,0.00000042,0.00000123,-0.00000096,-0.0000
 0028,0.00000070,0.00000030,0.00000062,0.00000029,0.00000020,0.00000073
 ,0.00000072,0.00000019,0.00000029,-0.00000063,-0.00000027,-0.00000047,
 -0.00000021,-0.00000024\\\@
 The archive entry for this job was punched.


 THE MORE PROGRESS PHYSICAL SCIENCES MAKE, THE MORE THEY TEND TO ENTER
 THE DOMAIN OF MATHEMATICS, WHICH IS A KIND OF CENTRE TO WHICH THEY ALL
 CONVERGE.  WE MAY EVEN JUDGE THE DEGREE OF PERFECTION TO WHICH A 
 SCIENCE HAS ARRIVED BY THE FACILITY WITH WHICH IT MAY BE SUBMITTED
 TO CALCULATION.

                               -- ADOLPHE QUETELET, 1796-1874
 Job cpu time:       0 days  2 hours  7 minutes 12.8 seconds.
 Elapsed time:       0 days  0 hours 13 minutes 18.9 seconds.
 File lengths (MBytes):  RWF=   1845 Int=      0 D2E=      0 Chk=     22 Scr=      1
 Normal termination of Gaussian 16 at Thu Oct  9 20:28:57 2025.
