 Entering Gaussian System, Link 0=g16
 Initial command:
 /aplic/Gaussian/g16b01_iqtc08/g16/l1.exe "/scratch/2722563.1.iqtc08.q/Gau-25854.inp" -scrdir="/scratch/2722563.1.iqtc08.q/"
 Entering Link 1 = /aplic/Gaussian/g16b01_iqtc08/g16/l1.exe PID=     25855.
  
 Copyright (c) 1988-2017, Gaussian, Inc.  All Rights Reserved.
  
 This is part of the Gaussian(R) 16 program.  It is based on
 the Gaussian(R) 09 system (copyright 2009, Gaussian, Inc.),
 the Gaussian(R) 03 system (copyright 2003, Gaussian, Inc.),
 the Gaussian(R) 98 system (copyright 1998, Gaussian, Inc.),
 the Gaussian(R) 94 system (copyright 1995, Gaussian, Inc.),
 the Gaussian 92(TM) system (copyright 1992, Gaussian, Inc.),
 the Gaussian 90(TM) system (copyright 1990, Gaussian, Inc.),
 the Gaussian 88(TM) system (copyright 1988, Gaussian, Inc.),
 the Gaussian 86(TM) system (copyright 1986, Carnegie Mellon
 University), and the Gaussian 82(TM) system (copyright 1983,
 Carnegie Mellon University). Gaussian is a federally registered
 trademark of Gaussian, Inc.
  
 This software contains proprietary and confidential information,
 including trade secrets, belonging to Gaussian, Inc.
  
 This software is provided under written license and may be
 used, copied, transmitted, or stored only in accord with that
 written license.
  
 The following legend is applicable only to US Government
 contracts under FAR:
  
                    RESTRICTED RIGHTS LEGEND
  
 Use, reproduction and disclosure by the US Government is
 subject to restrictions as set forth in subparagraphs (a)
 and (c) of the Commercial Computer Software - Restricted
 Rights clause in FAR 52.227-19.
  
 Gaussian, Inc.
 340 Quinnipiac St., Bldg. 40, Wallingford CT 06492
  
  
 ---------------------------------------------------------------
 Warning -- This program may not be used in any manner that
 competes with the business of Gaussian, Inc. or will provide
 assistance to any competitor of Gaussian, Inc.  The licensee
 of this program is prohibited from giving any competitor of
 Gaussian, Inc. access to this program.  By using this program,
 the user acknowledges that Gaussian, Inc. is engaged in the
 business of creating and licensing software in the field of
 computational chemistry and represents and warrants to the
 licensee that it is not a competitor of Gaussian, Inc. and that
 it will not use this program in any manner prohibited above.
 ---------------------------------------------------------------
  

 Cite this work as:
 Gaussian 16, Revision B.01,
 M. J. Frisch, G. W. Trucks, H. B. Schlegel, G. E. Scuseria, 
 M. A. Robb, J. R. Cheeseman, G. Scalmani, V. Barone, 
 G. A. Petersson, H. Nakatsuji, X. Li, M. Caricato, A. V. Marenich, 
 J. Bloino, B. G. Janesko, R. Gomperts, B. Mennucci, H. P. Hratchian, 
 J. V. Ortiz, A. F. Izmaylov, J. L. Sonnenberg, D. Williams-Young, 
 F. Ding, F. Lipparini, F. Egidi, J. Goings, B. Peng, A. Petrone, 
 T. Henderson, D. Ranasinghe, V. G. Zakrzewski, J. Gao, N. Rega, 
 G. Zheng, W. Liang, M. Hada, M. Ehara, K. Toyota, R. Fukuda, 
 J. Hasegawa, M. Ishida, T. Nakajima, Y. Honda, O. Kitao, H. Nakai, 
 T. Vreven, K. Throssell, J. A. Montgomery, Jr., J. E. Peralta, 
 F. Ogliaro, M. J. Bearpark, J. J. Heyd, E. N. Brothers, K. N. Kudin, 
 V. N. Staroverov, T. A. Keith, R. Kobayashi, J. Normand, 
 K. Raghavachari, A. P. Rendell, J. C. Burant, S. S. Iyengar, 
 J. Tomasi, M. Cossi, J. M. Millam, M. Klene, C. Adamo, R. Cammi, 
 J. W. Ochterski, R. L. Martin, K. Morokuma, O. Farkas, 
 J. B. Foresman, and D. J. Fox, Gaussian, Inc., Wallingford CT, 2016.
 
 ******************************************
 Gaussian 16:  ES64L-G16RevB.01 20-Dec-2017
                24-Dec-2022 
 ******************************************
 %nprocs=7
 Will use up to    7 processors via shared memory.
 %mem=10gb
 %chk=ABITEM_freq_HS.chk
 ----------------------------------------------------------------------
 #p nosymm scf=(maxconventionalcycles=200,xqc) UB3LYP IOp(3/76=10000015
 00) IOp(3/77=0720008500) IOp(3/78=0810010000) def2SVP freq EmpiricalDi
 spersion=GD3BJ
 ----------------------------------------------------------------------
 1/10=4,30=1,38=1/1,3;
 2/12=2,15=1,17=6,18=5,40=1/2;
 3/5=43,7=101,11=2,25=1,30=1,71=2,74=-5,76=1000001500,77=720008500,78=810010000,116=2,124=41,140=1/1,2,3;
 4//1;
 5/5=2,8=3,13=1,38=5,85=200,98=1/2,8;
 8/6=4,10=90,11=11/1;
 11/6=1,8=1,9=11,15=111,16=1,31=1/1,2,10;
 10/6=1,31=1/2;
 6/7=2,8=2,9=2,10=2,28=1/1;
 7/8=1,10=1,25=1,30=1/1,2,3,16;
 1/10=4,30=1/3;
 99//99;
 Leave Link    1 at Sat Dec 24 01:50:33 2022, MaxMem=  1342177280 cpu:               1.0 elap:               0.2
 (Enter /aplic/Gaussian/g16b01_iqtc08/g16/l101.exe)
 ----------
 Title Card
 ----------
 Symbolic Z-matrix:
 Charge =  0 Multiplicity = 5
 Fe                    3.77477   3.77909   13.49482 
 S                     1.62744   1.26065   16.64593 
 S                     7.77507   6.07067   13.49513 
 N                     4.38837   3.01278   11.57383 
 N                     1.55429   4.13928   12.89316 
 N                     3.22516   5.4676    14.74891 
 N                     3.82766   5.63749   12.02169 
 N                     3.2341    2.16829   14.53206 
 N                     5.75604   4.15679   13.9196 
 C                     4.40306   1.69753   11.31434 
 H                     3.95756   1.05694   12.08413 
 C                     4.96201   1.17791   10.14716 
 H                     4.9616    0.09876   9.97259 
 C                     5.51374   2.06687   9.21948 
 H                     5.9589    1.69793   8.29037 
 C                     5.48722   3.43616   9.49386 
 H                     5.90702   4.16122   8.79035 
 C                     4.92206   3.87877   10.6941 
 C                     4.92193   5.34054   11.08855 
 H                     5.88302   5.575     11.57968 
 H                     4.87055   5.97367   10.17927 
 C                     0.53382   3.64787   13.60913 
 H                     0.73298   2.74732   14.19747 
 C                     0.14756   5.94219   12.16491 
 H                     0.03965   6.8604    11.58 
 C                     1.3667    5.25985   12.17361 
 C                     2.53698   5.69478   11.32461 
 H                     2.59007   4.99599   10.47186 
 H                     2.35467   6.70398   10.90392 
 C                     2.67136   5.31731   15.96091 
 H                     2.55632   4.28989   16.32547 
 C                     2.24734   6.40636   16.72249 
 H                     1.80578   6.24224   17.70886 
 C                     2.39457   7.69064   16.19083 
 H                     2.06776   8.56932   16.7554 
 C                     2.95986   7.83676   14.9223 
 H                     3.08609   8.82545   14.47138 
 C                     3.37464   6.69688   14.22572 
 C                     4.07522   6.79692   12.88711 
 H                     3.78663   7.74381   12.38744 
 H                     5.16252   6.85679   13.08194 
 C                     2.5727    1.75936   15.43816 
 C                     6.64093   4.93559   13.77998 
 C                    -0.72338   4.25833   13.64204 
 H                    -1.52256   3.81874   14.24473 
 C                    -0.91857   5.432     12.91225 
 H                    -1.88347   5.94816   12.92719 
 
 ITRead=  0  0  0  0  0  0  0  0  0  0  0  0  0  0  0  0  0  0  0  0
 ITRead=  0  0  0  0  0  0  0  0  0  0  0  0  0  0  0  0  0  0  0  0
 ITRead=  0  0  0  0  0  0  0
 MicOpt= -1 -1 -1 -1 -1 -1 -1 -1 -1 -1 -1 -1 -1 -1 -1 -1 -1 -1 -1 -1
 MicOpt= -1 -1 -1 -1 -1 -1 -1 -1 -1 -1 -1 -1 -1 -1 -1 -1 -1 -1 -1 -1
 MicOpt= -1 -1 -1 -1 -1 -1 -1
 NAtoms=     47 NQM=       47 NQMF=       0 NMMI=      0 NMMIF=      0
                NMic=       0 NMicF=      0.
                    Isotopes and Nuclear Properties:
 (Nuclear quadrupole moments (NQMom) in fm**2, nuclear magnetic moments (NMagM)
  in nuclear magnetons)

  Atom         1           2           3           4           5           6           7           8           9          10
 IAtWgt=          56          32          32          14          14          14          14          14          14          12
 AtmWgt=  55.9349393  31.9720718  31.9720718  14.0030740  14.0030740  14.0030740  14.0030740  14.0030740  14.0030740  12.0000000
 NucSpn=           0           0           0           2           2           2           2           2           2           0
 AtZEff=  -0.0000000  -0.0000000  -0.0000000  -0.0000000  -0.0000000  -0.0000000  -0.0000000  -0.0000000  -0.0000000  -0.0000000
 NQMom=    0.0000000   0.0000000   0.0000000   2.0440000   2.0440000   2.0440000   2.0440000   2.0440000   2.0440000   0.0000000
 NMagM=    0.0000000   0.0000000   0.0000000   0.4037610   0.4037610   0.4037610   0.4037610   0.4037610   0.4037610   0.0000000
 AtZNuc=  26.0000000  16.0000000  16.0000000   7.0000000   7.0000000   7.0000000   7.0000000   7.0000000   7.0000000   6.0000000

  Atom        11          12          13          14          15          16          17          18          19          20
 IAtWgt=           1          12           1          12           1          12           1          12          12           1
 AtmWgt=   1.0078250  12.0000000   1.0078250  12.0000000   1.0078250  12.0000000   1.0078250  12.0000000  12.0000000   1.0078250
 NucSpn=           1           0           1           0           1           0           1           0           0           1
 AtZEff=  -0.0000000  -0.0000000  -0.0000000  -0.0000000  -0.0000000  -0.0000000  -0.0000000  -0.0000000  -0.0000000  -0.0000000
 NQMom=    0.0000000   0.0000000   0.0000000   0.0000000   0.0000000   0.0000000   0.0000000   0.0000000   0.0000000   0.0000000
 NMagM=    2.7928460   0.0000000   2.7928460   0.0000000   2.7928460   0.0000000   2.7928460   0.0000000   0.0000000   2.7928460
 AtZNuc=   1.0000000   6.0000000   1.0000000   6.0000000   1.0000000   6.0000000   1.0000000   6.0000000   6.0000000   1.0000000

  Atom        21          22          23          24          25          26          27          28          29          30
 IAtWgt=           1          12           1          12           1          12          12           1           1          12
 AtmWgt=   1.0078250  12.0000000   1.0078250  12.0000000   1.0078250  12.0000000  12.0000000   1.0078250   1.0078250  12.0000000
 NucSpn=           1           0           1           0           1           0           0           1           1           0
 AtZEff=  -0.0000000  -0.0000000  -0.0000000  -0.0000000  -0.0000000  -0.0000000  -0.0000000  -0.0000000  -0.0000000  -0.0000000
 NQMom=    0.0000000   0.0000000   0.0000000   0.0000000   0.0000000   0.0000000   0.0000000   0.0000000   0.0000000   0.0000000
 NMagM=    2.7928460   0.0000000   2.7928460   0.0000000   2.7928460   0.0000000   0.0000000   2.7928460   2.7928460   0.0000000
 AtZNuc=   1.0000000   6.0000000   1.0000000   6.0000000   1.0000000   6.0000000   6.0000000   1.0000000   1.0000000   6.0000000

  Atom        31          32          33          34          35          36          37          38          39          40
 IAtWgt=           1          12           1          12           1          12           1          12          12           1
 AtmWgt=   1.0078250  12.0000000   1.0078250  12.0000000   1.0078250  12.0000000   1.0078250  12.0000000  12.0000000   1.0078250
 NucSpn=           1           0           1           0           1           0           1           0           0           1
 AtZEff=  -0.0000000  -0.0000000  -0.0000000  -0.0000000  -0.0000000  -0.0000000  -0.0000000  -0.0000000  -0.0000000  -0.0000000
 NQMom=    0.0000000   0.0000000   0.0000000   0.0000000   0.0000000   0.0000000   0.0000000   0.0000000   0.0000000   0.0000000
 NMagM=    2.7928460   0.0000000   2.7928460   0.0000000   2.7928460   0.0000000   2.7928460   0.0000000   0.0000000   2.7928460
 AtZNuc=   1.0000000   6.0000000   1.0000000   6.0000000   1.0000000   6.0000000   1.0000000   6.0000000   6.0000000   1.0000000

  Atom        41          42          43          44          45          46          47
 IAtWgt=           1          12          12          12           1          12           1
 AtmWgt=   1.0078250  12.0000000  12.0000000  12.0000000   1.0078250  12.0000000   1.0078250
 NucSpn=           1           0           0           0           1           0           1
 AtZEff=  -0.0000000  -0.0000000  -0.0000000  -0.0000000  -0.0000000  -0.0000000  -0.0000000
 NQMom=    0.0000000   0.0000000   0.0000000   0.0000000   0.0000000   0.0000000   0.0000000
 NMagM=    2.7928460   0.0000000   0.0000000   0.0000000   2.7928460   0.0000000   2.7928460
 AtZNuc=   1.0000000   6.0000000   6.0000000   6.0000000   1.0000000   6.0000000   1.0000000
 Leave Link  101 at Sat Dec 24 01:50:41 2022, MaxMem=  1342177280 cpu:              31.1 elap:               7.7
 (Enter /aplic/Gaussian/g16b01_iqtc08/g16/l103.exe)

 GradGradGradGradGradGradGradGradGradGradGradGradGradGradGradGradGradGrad
 Berny optimization.
 Initialization pass.
 Trust Radius=3.00D-01 FncErr=1.00D-07 GrdErr=1.00D-07 EigMax=2.50D+02 EigMin=1.00D-04
 Number of steps in this run=      2 maximum allowed number of steps=      2.
 GradGradGradGradGradGradGradGradGradGradGradGradGradGradGradGradGradGrad

 Leave Link  103 at Sat Dec 24 01:50:41 2022, MaxMem=  1342177280 cpu:               0.6 elap:               0.2
 (Enter /aplic/Gaussian/g16b01_iqtc08/g16/l202.exe)
                          Input orientation:                          
 ---------------------------------------------------------------------
 Center     Atomic      Atomic             Coordinates (Angstroms)
 Number     Number       Type             X           Y           Z
 ---------------------------------------------------------------------
      1         26           0        3.774774    3.779086   13.494815
      2         16           0        1.627444    1.260647   16.645926
      3         16           0        7.775067    6.070671   13.495128
      4          7           0        4.388366    3.012781   11.573830
      5          7           0        1.554286    4.139279   12.893164
      6          7           0        3.225163    5.467599   14.748913
      7          7           0        3.827655    5.637491   12.021693
      8          7           0        3.234103    2.168291   14.532057
      9          7           0        5.756036    4.156787   13.919598
     10          6           0        4.403060    1.697532   11.314345
     11          1           0        3.957564    1.056936   12.084132
     12          6           0        4.962006    1.177906   10.147158
     13          1           0        4.961604    0.098755    9.972590
     14          6           0        5.513741    2.066869    9.219480
     15          1           0        5.958902    1.697928    8.290368
     16          6           0        5.487222    3.436157    9.493861
     17          1           0        5.907017    4.161215    8.790346
     18          6           0        4.922063    3.878771   10.694095
     19          6           0        4.921934    5.340535   11.088554
     20          1           0        5.883024    5.575005   11.579678
     21          1           0        4.870551    5.973670   10.179266
     22          6           0        0.533820    3.647869   13.609127
     23          1           0        0.732976    2.747319   14.197467
     24          6           0        0.147563    5.942191   12.164908
     25          1           0        0.039650    6.860404   11.579998
     26          6           0        1.366696    5.259855   12.173612
     27          6           0        2.536976    5.694780   11.324614
     28          1           0        2.590071    4.995985   10.471859
     29          1           0        2.354671    6.703981   10.903917
     30          6           0        2.671356    5.317313   15.960915
     31          1           0        2.556322    4.289887   16.325468
     32          6           0        2.247340    6.406355   16.722495
     33          1           0        1.805775    6.242237   17.708857
     34          6           0        2.394567    7.690638   16.190834
     35          1           0        2.067764    8.569323   16.755395
     36          6           0        2.959863    7.836761   14.922297
     37          1           0        3.086086    8.825453   14.471378
     38          6           0        3.374638    6.696879   14.225717
     39          6           0        4.075222    6.796917   12.887107
     40          1           0        3.786628    7.743812   12.387440
     41          1           0        5.162524    6.856793   13.081945
     42          6           0        2.572699    1.759360   15.438155
     43          6           0        6.640933    4.935589   13.779979
     44          6           0       -0.723383    4.258325   13.642042
     45          1           0       -1.522564    3.818735   14.244730
     46          6           0       -0.918572    5.431997   12.912247
     47          1           0       -1.883471    5.948159   12.927194
 ---------------------------------------------------------------------
                    Distance matrix (angstroms):
                    1          2          3          4          5
     1  Fe   0.000000
     2  S    4.569799   0.000000
     3  S    4.610174   8.417668   0.000000
     4  N    2.157290   6.034801   4.950941   0.000000
     5  N    2.328581   4.730232   6.541464   3.322898   0.000000
     6  N    2.173916   4.883627   4.757867   4.178555   2.828439
     7  N    2.372036   6.736559   4.235648   2.721044   2.858725
     8  N    1.990692   2.805996   6.076524   3.285817   3.064727
     9  N    2.061188   5.732867   2.814181   2.946506   4.325341
    10  C    3.079295   6.026663   5.937221   1.340682   4.070665
    11  H    3.071407   5.126492   6.457691   2.066719   3.991380
    12  C    4.402552   7.304802   6.562116   2.393997   5.284206
    13  H    5.230628   7.549836   7.482488   3.374036   6.038659
    14  C    4.922823   8.420534   6.278948   2.775641   5.785164
    15  H    6.015638   9.421682   7.036253   3.869954   6.822505
    16  C    4.365514   8.413249   5.308958   2.390189   5.245725
    17  H    5.179238   9.404157   5.410232   3.372386   5.981627
    18  C    3.028241   7.289265   4.559588   1.344881   4.030594
    19  C    3.089367   7.640912   3.803297   2.436930   4.005083
    20  H    3.367164   7.898767   2.737601   2.966316   4.746001
    21  H    4.124293   8.634120   4.409145   3.308198   4.661314
    22  C    3.245623   4.014597   7.636663   4.404917   1.339939
    23  H    3.287978   3.000870   7.818503   4.507307   2.076851
    24  C    4.427678   6.647287   7.743695   5.187989   2.399941
    25  H    5.206937   7.716346   8.008001   5.806511   3.379800
    26  C    3.120432   6.005268   6.593258   3.813079   1.344855
    27  C    3.148301   6.986068   5.682431   3.268466   2.417770
    28  H    3.467366   7.280007   6.097482   2.895048   2.769389
    29  H    4.157458   7.945402   6.041204   4.267277   3.342965
    30  C    3.108910   4.244471   5.718000   5.244569   3.470836
    31  H    3.123802   3.184620   6.198170   5.250281   3.578753
    32  C    4.433229   5.183478   6.409707   6.527564   4.503747
    33  H    5.263290   5.096848   7.308720   7.398494   5.260853
    34  C    4.947093   6.491561   6.232247   6.868355   4.918623
    35  H    6.040831   7.322746   7.031779   7.944115   5.899642
    36  C    4.377957   6.927591   5.323728   6.043479   4.445717
    37  H    5.185922   8.005160   5.525254   6.624113   5.176620
    38  C    3.034443   6.201832   4.504406   4.651100   3.410381
    39  C    3.093038   7.125351   3.819159   4.017766   3.663085
    40  H    4.116488   8.051597   4.464753   4.838048   4.269867
    41  H    3.401263   7.517686   2.759364   4.201209   4.521051
    42  C    3.049729   1.612741   7.030462   4.449800   3.630173
    43  C    3.103818   6.844993   1.629666   3.693013   5.224417
    44  C    4.526010   4.851369   8.690790   5.653217   2.400576
    45  H    5.350302   4.715094   9.595784   6.536235   3.375868
    46  C    5.009890   6.150018   8.736533   5.983942   2.790432
    47  H    6.086280   6.937453   9.675997   7.055776   3.884762
                    6          7          8          9         10
     6  N    0.000000
     7  N    2.798140   0.000000
     8  N    3.306439   4.323145   0.000000
     9  N    2.968385   3.084345   3.269460   0.000000
    10  C    5.234224   4.044096   3.455683   3.829598   0.000000
    11  H    5.204942   4.582822   2.784034   4.026477   1.096085
    12  C    6.526426   4.968756   4.815999   4.871911   1.394546
    13  H    7.392765   6.013506   5.296789   5.716434   2.160640
    14  C    6.883109   4.841965   5.781912   5.149522   2.399684
    15  H    7.962195   5.829679   6.826745   6.146167   3.400747
    16  C    6.071181   3.740317   5.662813   4.492073   2.740873
    17  H    6.663595   4.116399   6.639538   5.131476   3.834344
    18  C    4.673906   2.460354   4.528234   3.343153   2.326344
    19  C    4.036509   1.468461   4.976909   3.179905   3.686690
    20  H    4.137609   2.103289   5.228673   2.739105   4.158785
    21  H    4.883143   2.143638   6.008799   4.251497   4.448855
    22  C    3.442943   4.162678   3.214417   5.256133   4.903148
    23  H    3.730283   4.760685   2.588988   5.224456   4.783718
    24  C    4.046473   3.695461   5.419635   6.141789   6.070407
    25  H    4.704192   4.004946   6.398055   6.742428   6.764996
    26  C    3.182646   2.494395   4.313611   4.850931   4.758991
    27  C    3.500148   1.468010   4.817655   4.411543   4.411391
    28  H    4.349592   2.084497   4.989573   4.755470   3.857007
    29  H    4.131633   2.134597   5.874460   5.210740   5.424839
    30  C    1.340984   4.117889   3.503521   3.876731   6.139399
    31  H    2.078432   4.685595   2.859524   4.005508   5.936506
    32  C    2.394249   5.018574   4.871643   5.022722   7.487872
    33  H    3.372832   6.066098   5.359964   5.857657   8.263777
    34  C    2.776856   4.863218   5.826893   5.380157   7.983202
    35  H    3.871206   5.839588   6.875812   6.412142   9.070840
    36  C    2.390267   3.742106   5.688501   4.729291   7.265691
    37  H    3.372173   4.088274   6.659084   5.406435   7.906234
    38  C    1.344324   2.487016   4.541113   3.495259   5.875986
    39  C    2.440493   1.467821   4.983726   3.295673   5.346474
    40  H    3.327603   2.138233   5.999258   4.369534   6.171631
    41  H    2.908953   2.095879   5.272920   2.888590   5.506285
    42  C    3.827767   5.318555   1.194024   4.264658   4.512189
    43  C    3.590174   3.390984   4.453094   1.187042   4.644614
    44  C    4.275339   5.023901   4.563120   6.486156   6.185164
    45  H    5.051125   6.072447   5.043055   7.293696   6.942599
    46  C    4.532676   4.833424   5.524515   6.869593   6.694721
    47  H    5.444974   5.790804   6.561444   7.909232   7.758195
                   11         12         13         14         15
    11  H    0.000000
    12  C    2.185270   0.000000
    13  H    2.526819   1.093179   0.000000
    14  C    3.412899   1.398304   2.178417   0.000000
    15  H    4.336919   2.170690   2.526228   1.094319   0.000000
    16  C    3.835368   2.408806   3.412288   1.396760   2.166176
    17  H    4.928077   3.410882   4.335330   2.173731   2.514051
    18  C    3.290169   2.755977   3.848461   2.409888   3.407200
    19  C    4.502267   4.267940   5.359404   3.815830   4.708899
    20  H    4.937086   4.715386   5.781095   4.244281   5.084982
    21  H    5.351293   4.796743   5.879254   4.074061   4.799418
    22  C    4.556376   6.139607   6.739873   6.824088   7.843659
    23  H    4.209697   6.062405   6.538025   6.935350   7.956465
    24  C    6.195833   7.067432   7.882068   7.244966   8.172973
    25  H    7.020288   7.653326   8.516413   7.649555   8.515302
    26  C    4.938130   5.804746   6.663694   6.009995   6.989654
    27  C    4.909637   5.260164   6.246782   5.143390   6.073800
    28  H    4.470522   4.506577   5.464092   4.323889   5.194719
    29  H    5.987595   6.156979   7.161877   5.858315   6.699380
    30  C    5.902083   7.495434   8.266718   8.005716   9.096439
    31  H    5.514017   7.324156   7.981856   8.011442   9.102672
    32  C    7.283925   8.828428   9.628825   9.262599  10.346291
    33  H    7.947017   9.632681  10.370702  10.161311  11.251984
    34  C    7.957007   9.248429  10.143615   9.484503  10.537287
    35  H    9.045883  10.328527  11.230818  10.533123  11.576429
    36  C    7.417319   8.435098   9.401239   8.505061   9.521659
    37  H    8.173633   8.983481   9.995595   8.896876   9.862027
    38  C    6.060953   7.043681   8.008919   7.146689   8.179016
    39  C    5.797068   6.314031   7.358360   6.155825   7.118845
    40  H    6.695934   7.036441   8.103022   6.726557   7.619546
    41  H    6.007154   6.395541   7.441743   6.163227   7.085712
    42  C    3.696041   5.834512   6.191678   6.885943   7.909551
    43  C    5.012017   5.489660   6.380542   5.504386   6.409637
    44  C    5.881092   7.350295   7.942668   7.953820   8.935826
    45  H    6.505960   8.112566   8.610103   8.822231   9.794110
    46  C    6.603305   7.766866   8.465313   8.144646   9.088712
    47  H    7.665018   8.794570   9.476300   9.139491  10.053230
                   16         17         18         19         20
    16  C    0.000000
    17  H    1.094016   0.000000
    18  C    1.398525   2.161983   0.000000
    19  C    2.547401   2.764588   1.514051   0.000000
    20  H    3.013629   3.127259   2.141241   1.104479   0.000000
    21  H    2.699821   2.507659   2.157847   1.109191   1.773468
    22  C    6.443324   7.235705   5.273273   5.336099   6.037094
    23  H    6.723188   7.616217   5.576939   5.825588   6.432078
    24  C    6.475080   6.908752   5.405261   4.931039   5.776922
    25  H    6.764132   7.035181   5.789034   5.136946   5.983082
    26  C    5.242678   5.767843   4.091088   3.718007   4.566103
    27  C    4.142099   4.486815   3.063345   2.422651   3.357892
    28  H    3.432641   3.811359   2.595331   2.436516   3.522225
    29  H    4.741288   4.853041   3.823263   2.912716   3.765702
    30  C    7.300044   7.951297   5.905462   5.367079   5.438424
    31  H    7.482639   8.247532   6.121937   5.841682   5.936413
    32  C    8.460027   9.019583   7.062891   6.326983   6.352787
    33  H    9.429385  10.034474   8.031445   7.372376   7.391616
    34  C    8.515549   8.919717   7.150714   6.159856   6.156947
    35  H    9.527432   9.879944   8.178488   7.119301   7.092968
    36  C    7.431068   7.732799   6.115031   4.977796   4.983323
    37  H    7.719174   7.873175   6.489094   5.192157   5.172060
    38  C    6.122563   6.510437   4.775836   3.751744   3.814725
    39  C    4.980218   5.204407   3.747268   2.464298   2.543735
    40  H    5.460834   5.501830   4.369802   2.958338   3.122672
    41  H    4.967950   5.122327   3.824691   2.516054   2.102120
    42  C    6.829401   7.815366   5.702413   6.104322   6.356512
    43  C    4.685099   5.102423   3.687012   3.219116   2.413422
    44  C    7.513653   8.216483   6.380087   6.289760   7.044970
    45  H    8.476687   9.223138   7.358249   7.335453   8.064101
    46  C    7.530135   8.074257   6.437836   6.119292   6.932381
    47  H    8.510291   8.999910   7.455494   7.075545   7.891355
                   21         22         23         24         25
    21  H    0.000000
    22  C    5.998377   0.000000
    23  H    6.608692   1.093982   0.000000
    24  C    5.123513   2.738408   3.831607   0.000000
    25  H    5.107441   3.831703   4.924359   1.094020   0.000000
    26  C    4.094380   2.313630   3.287921   1.397120   2.162218
    27  C    2.614417   3.663534   4.493910   2.544917   2.767768
    28  H    2.498413   3.985980   4.731327   3.118905   3.347936
    29  H    2.718111   4.469170   5.397457   2.653629   2.416790
    30  C    6.220509   3.589848   3.670413   4.601051   5.338487
    31  H    6.779866   3.446913   3.198827   5.083551   5.954887
    32  C    7.062740   4.498717   4.696553   5.039455   5.614742
    33  H    8.133863   5.015616   5.069044   5.794399   6.408139
    34  C    6.724390   5.145053   5.583082   4.930940   5.243542
    35  H    7.605163   6.039263   6.497722   5.626861   5.815358
    36  C    5.442259   5.015667   5.602394   4.370540   4.544434
    37  H    5.453367   5.836516   6.523486   4.718890   4.637054
    38  C    4.374306   4.212706   4.751652   3.902627   4.260131
    39  C    2.939845   4.793678   5.411737   4.083948   4.242453
    40  H    3.030565   5.371222   6.129105   4.066713   3.933474
    41  H    3.048065   5.656856   6.144352   5.179506   5.338511
    42  C    7.120144   3.326986   2.428981   5.838793   6.879125
    43  C    4.144514   6.243736   6.314014   6.766502   7.219541
    44  C    6.798921   1.397963   2.170856   2.403305   3.406620
    45  H    7.876780   2.159144   2.497524   3.409406   4.335096
    46  C    6.424682   2.403788   3.403953   1.398377   2.175643
    47  H    7.291678   3.405828   4.324901   2.169381   2.519032
                   26         27         28         29         30
    26  C    0.000000
    27  C    1.509805   0.000000
    28  H    2.112401   1.103777   0.000000
    29  H    2.161879   1.108471   1.777453   0.000000
    30  C    4.006133   4.653582   5.499054   5.253224   0.000000
    31  H    4.426506   5.194482   5.896139   5.938159   1.096237
    32  C    4.773084   5.452279   6.416935   5.827174   1.394922
    33  H    5.638865   6.449258   7.385283   6.842639   2.158707
    34  C    4.806589   5.261542   6.325034   5.378343   2.400447
    35  H    5.695332   6.162511   7.247370   6.148301   3.401631
    36  C    4.090708   4.208353   5.292745   4.218628   2.740362
    37  H    4.577065   4.472668   5.559407   4.214545   3.833767
    38  C    3.210608   3.181553   4.195240   3.474872   2.325666
    39  C    3.194957   2.454036   3.358936   2.627161   3.688952
    40  H    3.474455   2.624835   3.556930   2.309240   4.461104
    41  H    4.217059   3.366302   4.110069   3.556852   4.106627
    42  C    4.936107   5.692980   5.927912   6.712386   3.597505
    43  C    5.522965   4.842277   5.230372   5.456279   4.545298
    44  C    2.743680   4.250155   4.644694   4.790927   4.245336
    45  H    3.835907   5.341019   5.703879   5.875256   4.772839
    46  C    2.407834   3.811882   4.296065   4.045424   4.711169
    47  H    3.406646   4.708802   5.191135   4.756760   5.508891
                   31         32         33         34         35
    31  H    0.000000
    32  C    2.175440   0.000000
    33  H    2.507739   1.093080   0.000000
    34  C    3.407257   1.397756   2.179205   0.000000
    35  H    4.328637   2.170659   2.528450   1.094357   0.000000
    36  C    3.835629   2.407169   3.411648   1.396459   2.166272
    37  H    4.928454   3.409261   4.335144   2.173139   2.513825
    38  C    3.297303   2.754833   3.847115   2.410349   3.407820
    39  C    4.518250   4.266602   5.357922   3.812866   4.704781
    40  H    5.380643   4.790710   5.873328   4.050490   4.766025
    41  H    4.888940   4.685595   5.749240   4.245241   5.099464
    42  C    2.681634   4.832179   5.083350   5.981498   6.954544
    43  C    4.855975   5.488644   6.365702   5.606616   6.555227
    44  C    4.237716   4.788363   5.183776   5.291382   6.005678
    45  H    4.603126   5.200699   5.380649   5.841478   6.462351
    46  C    5.002937   5.048798   5.575484   5.179525   5.790579
    47  H    5.831800   5.628308   6.046596   5.655899   6.094086
                   36         37         38         39         40
    36  C    0.000000
    37  H    1.093971   0.000000
    38  C    1.398783   2.162045   0.000000
    39  C    2.543089   2.757401   1.514167   0.000000
    40  H    2.667898   2.450205   2.155242   1.108857   0.000000
    41  H    3.032977   3.180840   2.128456   1.106243   1.778266
    42  C    6.111531   7.150377   5.147058   5.843150   6.825991
    43  C    4.824103   5.314698   3.737580   3.293119   4.239379
    44  C    5.292500   6.004874   4.804269   5.480966   5.836338
    45  H    6.057704   6.808689   5.680375   6.484436   6.858810
    46  C    4.986527   5.475739   4.664417   5.177028   5.268664
    47  H    5.568226   5.946413   5.467582   6.018972   5.972079
                   41         42         43         44         45
    41  H    0.000000
    42  C    6.184072   0.000000
    43  C    2.522691   5.421117   0.000000
    44  C    6.458301   4.509435   7.396679   0.000000
    45  H    7.434532   4.736715   8.252638   1.093235   0.000000
    46  C    6.248085   5.661930   7.625319   1.395781   2.177827
    47  H    7.106026   6.611234   8.626587   2.170795   2.529941
                   46         47
    46  C    0.000000
    47  H    1.094384   0.000000
 Symmetry turned off by external request.
 Stoichiometry    C20H18FeN6S2(5)
 Framework group  C1[X(C20H18FeN6S2)]
 Deg. of freedom   135
 Full point group                 C1      NOp   1
 Rotational constants (GHZ):           0.1743591           0.1336096           0.1185203
 Leave Link  202 at Sat Dec 24 01:50:43 2022, MaxMem=  1342177280 cpu:               1.1 elap:               1.5
 (Enter /aplic/Gaussian/g16b01_iqtc08/g16/l301.exe)
 Standard basis: def2SVP (5D, 7F)
 Ernie: Thresh=  0.10000D-02 Tol=  0.10000D-05 Strict=F.
   521 basis functions,   931 primitive gaussians,   554 cartesian basis functions
   121 alpha electrons      117 beta electrons
       nuclear repulsion energy      3723.5295117066 Hartrees.
 IExCor=  402 DFT=T Ex+Corr=B3LYP ExCW=0 ScaHFX=  0.150000
 ScaDFX=  0.850000  0.720000  1.000000  0.810000 ScalE2=  1.000000  1.000000
 IRadAn=      5 IRanWt=     -1 IRanGd=            0 ICorTp=0 IEmpDi=141
 NAtoms=   47 NActive=   47 NUniq=   47 SFac= 1.00D+00 NAtFMM=   60 NAOKFM=F Big=F
 Integral buffers will be    131072 words long.
 Raffenetti 2 integral format.
 Two-electron integral symmetry is turned off.
 R6Disp:  Grimme-D3(BJ) Dispersion energy=       -0.1434413198 Hartrees.
 Nuclear repulsion after empirical dispersion term =     3723.3860703868 Hartrees.
 Leave Link  301 at Sat Dec 24 01:50:45 2022, MaxMem=  1342177280 cpu:               1.5 elap:               2.1
 (Enter /aplic/Gaussian/g16b01_iqtc08/g16/l302.exe)
 NPDir=0 NMtPBC=     1 NCelOv=     1 NCel=       1 NClECP=     1 NCelD=      1
         NCelK=      1 NCelE2=     1 NClLst=     1 CellRange=     0.0.
 One-electron integrals computed using PRISM.
   1 Symmetry operations used in ECPInt.
 ECPInt:  NShTT=   28203 NPrTT=  109756 LenC2=   25564 LenP2D=   65989.
 LDataN:  DoStor=T MaxTD1= 6 Len=  172
 NBasis=   521 RedAO= T EigKep=  5.31D-04  NBF=   521
 NBsUse=   521 1.00D-06 EigRej= -1.00D+00 NBFU=   521
 Precomputing XC quadrature grid using
 IXCGrd= 4 IRadAn=           5 IRanWt=          -1 IRanGd=           0 AccXCQ= 0.00D+00.
 Generated NRdTot=       0 NPtTot=           0 NUsed=           0 NTot=          32
 NSgBfM=   544   544   544   544   544 MxSgAt=    47 MxSgA2=    47.
 Leave Link  302 at Sat Dec 24 01:50:48 2022, MaxMem=  1342177280 cpu:              17.9 elap:               2.9
 (Enter /aplic/Gaussian/g16b01_iqtc08/g16/l303.exe)
 DipDrv:  MaxL=1.
 Leave Link  303 at Sat Dec 24 01:50:50 2022, MaxMem=  1342177280 cpu:               1.5 elap:               2.1
 (Enter /aplic/Gaussian/g16b01_iqtc08/g16/l401.exe)
 ExpMin= 3.37D-02 ExpMax= 6.09D+04 ExpMxC= 9.15D+03 IAcc=3 IRadAn=         5 AccDes= 0.00D+00
 Harris functional with IExCor=  402 and IRadAn=       5 diagonalized for initial guess.
 HarFok:  IExCor=  402 AccDes= 0.00D+00 IRadAn=         5 IDoV= 1 UseB2=F ITyADJ=14
 ICtDFT=  3500011 ScaDFX=  1.000000  1.000000  1.000000  1.000000
 FoFCou: FMM=F IPFlag=           0 FMFlag=      100000 FMFlg1=           0
         NFxFlg=           0 DoJE=T BraDBF=F KetDBF=T FulRan=T
         wScrn=  0.000000 ICntrl=       500 IOpCl=  0 I1Cent=   200000004 NGrid=           0
         NMat0=    1 NMatS0=      1 NMatT0=    0 NMatD0=    1 NMtDS0=    0 NMtDT0=    0
 Symmetry not used in FoFCou.
 Harris En= -3160.33222088159    
 JPrj=0 DoOrth=F DoCkMO=F.
 Initial guess <Sx>= 0.0000 <Sy>= 0.0000 <Sz>= 2.0000 <S**2>= 6.0000 S= 2.0000
 Leave Link  401 at Sat Dec 24 01:50:57 2022, MaxMem=  1342177280 cpu:              36.9 elap:               6.7
 (Enter /aplic/Gaussian/g16b01_iqtc08/g16/l502.exe)
 Two-electron integral symmetry not used.
 UHF open shell SCF:
 Using DIIS extrapolation, IDIIS=  1040.
 NGot=  1342177280 LenX=  1341555177 LenY=  1341247707
 Requested convergence on RMS density matrix=1.00D-08 within 200 cycles.
 Requested convergence on MAX density matrix=1.00D-06.
 Requested convergence on             energy=1.00D-06.
 No special actions if energy rises.
 Fock matrices will be formed incrementally for  20 cycles.

 Cycle   1  Pass 1  IDiag  1:
 FoFJK:  IHMeth= 1 ICntrl=       0 DoSepK=F KAlg= 0 I1Cent=           0 FoldK=F
 IRaf= 840000000 NMat=       1 IRICut=       1 DoRegI=T DoRafI=F ISym2E= 0 IDoP0=0 IntGTp=1.
 FoFCou: FMM=F IPFlag=           0 FMFlag=      100000 FMFlg1=           0
         NFxFlg=           0 DoJE=F BraDBF=F KetDBF=F FulRan=T
         wScrn=  0.000000 ICntrl=         0 IOpCl=  1 I1Cent=           0 NGrid=           0
         NMat0=    1 NMatS0=      1 NMatT0=    0 NMatD0=    1 NMtDS0=    0 NMtDT0=    0
 Symmetry not used in FoFCou.
 E= -3159.08821622659    
 DIIS: error= 1.98D-02 at cycle   1 NSaved=   1.
 NSaved= 1 IEnMin= 1 EnMin= -3159.08821622659     IErMin= 1 ErrMin= 1.98D-02
 ErrMax= 1.98D-02  0.00D+00 EMaxC= 1.00D-01 BMatC= 1.95D+00 BMatP= 1.95D+00
 IDIUse=3 WtCom= 8.02D-01 WtEn= 1.98D-01
 Coeff-Com:  0.100D+01
 Coeff-En:   0.100D+01
 Coeff:      0.100D+01
 Gap=     0.216 Goal=   None    Shift=    0.000
 Gap=     0.089 Goal=   None    Shift=    0.000
 GapD=    0.089 DampG=0.500 DampE=0.250 DampFc=0.1250 IDamp=-1.
 Damping current iteration by 1.25D-01
 RMSDP=3.90D-03 MaxDP=2.82D-01              OVMax= 4.65D-01

 Cycle   2  Pass 1  IDiag  1:
 RMSU=  4.80D-04    CP:  9.95D-01
 E= -3159.19927777607     Delta-E=       -0.111061549486 Rises=F Damp=T
 DIIS: error= 1.51D-02 at cycle   2 NSaved=   2.
 NSaved= 2 IEnMin= 2 EnMin= -3159.19927777607     IErMin= 2 ErrMin= 1.51D-02
 ErrMax= 1.51D-02  0.00D+00 EMaxC= 1.00D-01 BMatC= 8.58D-01 BMatP= 1.95D+00
 IDIUse=3 WtCom= 8.49D-01 WtEn= 1.51D-01
 Coeff-Com: -0.112D+01 0.212D+01
 Coeff-En:   0.000D+00 0.100D+01
 Coeff:     -0.953D+00 0.195D+01
 Gap=     0.162 Goal=   None    Shift=    0.000
 Gap=     0.174 Goal=   None    Shift=    0.000
 RMSDP=3.16D-03 MaxDP=2.77D-01 DE=-1.11D-01 OVMax= 8.44D-01

 Cycle   3  Pass 1  IDiag  1:
 RMSU=  3.02D-03    CP:  9.70D-01  2.67D+00
 E= -3157.72905327414     Delta-E=        1.470224501936 Rises=F Damp=F
 DIIS: error= 7.68D-02 at cycle   3 NSaved=   3.
 NSaved= 3 IEnMin= 2 EnMin= -3159.19927777607     IErMin= 2 ErrMin= 1.51D-02
 ErrMax= 7.68D-02  0.00D+00 EMaxC= 1.00D-01 BMatC= 8.70D+00 BMatP= 8.58D-01
 IDIUse=2 WtCom= 0.00D+00 WtEn= 1.00D+00
 Coeff-En:   0.000D+00 0.894D+00 0.106D+00
 Coeff:      0.000D+00 0.894D+00 0.106D+00
 Gap=     0.052 Goal=   None    Shift=    0.000
 Gap=     0.062 Goal=   None    Shift=    0.000
 RMSDP=3.58D-03 MaxDP=3.96D-01 DE= 1.47D+00 OVMax= 5.54D-01

 Cycle   4  Pass 1  IDiag  1:
 RMSU=  1.67D-03    CP:  9.67D-01  3.00D+00 -2.30D-02
 E= -3158.49931113791     Delta-E=       -0.770257863774 Rises=F Damp=F
 DIIS: error= 4.89D-02 at cycle   4 NSaved=   4.
 NSaved= 4 IEnMin= 2 EnMin= -3159.19927777607     IErMin= 2 ErrMin= 1.51D-02
 ErrMax= 4.89D-02  0.00D+00 EMaxC= 1.00D-01 BMatC= 5.83D+00 BMatP= 8.58D-01
 IDIUse=2 WtCom= 0.00D+00 WtEn= 1.00D+00
 EnCoef did   100 forward-backward iterations
 Coeff-En:   0.372D+00 0.229D-01 0.217D+00 0.389D+00
 Coeff:      0.372D+00 0.229D-01 0.217D+00 0.389D+00
 Gap=     0.139 Goal=   None    Shift=    0.000
 Gap=     0.100 Goal=   None    Shift=    0.000
 RMSDP=1.83D-03 MaxDP=2.42D-01 DE=-7.70D-01 OVMax= 3.67D-01

 Cycle   5  Pass 1  IDiag  1:
 RMSU=  1.21D-03    CP:  9.75D-01  2.95D+00  1.58D-01  2.73D-01
 E= -3159.59996289154     Delta-E=       -1.100651753626 Rises=F Damp=F
 DIIS: error= 5.29D-03 at cycle   5 NSaved=   5.
 NSaved= 5 IEnMin= 5 EnMin= -3159.59996289154     IErMin= 5 ErrMin= 5.29D-03
 ErrMax= 5.29D-03  0.00D+00 EMaxC= 1.00D-01 BMatC= 9.12D-02 BMatP= 8.58D-01
 IDIUse=3 WtCom= 9.47D-01 WtEn= 5.29D-02
 Coeff-Com: -0.105D+01 0.136D+01 0.606D-01-0.113D+00 0.745D+00
 Coeff-En:   0.000D+00 0.000D+00 0.000D+00 0.000D+00 0.100D+01
 Coeff:     -0.994D+00 0.129D+01 0.574D-01-0.107D+00 0.758D+00
 Gap=     0.108 Goal=   None    Shift=    0.000
 Gap=     0.090 Goal=   None    Shift=    0.000
 RMSDP=4.68D-04 MaxDP=2.40D-02 DE=-1.10D+00 OVMax= 3.97D-02

 Cycle   6  Pass 1  IDiag  1:
 RMSU=  4.56D-04    CP:  9.76D-01  3.00D+00  1.57D-01  2.93D-01  9.51D-01
 E= -3159.62116608470     Delta-E=       -0.021203193161 Rises=F Damp=F
 DIIS: error= 1.60D-03 at cycle   6 NSaved=   6.
 NSaved= 6 IEnMin= 6 EnMin= -3159.62116608470     IErMin= 6 ErrMin= 1.60D-03
 ErrMax= 1.60D-03  0.00D+00 EMaxC= 1.00D-01 BMatC= 1.47D-02 BMatP= 9.12D-02
 IDIUse=3 WtCom= 9.84D-01 WtEn= 1.60D-02
 Coeff-Com: -0.402D+00 0.498D+00 0.206D-01-0.545D-01 0.359D+00 0.579D+00
 Coeff-En:   0.000D+00 0.000D+00 0.000D+00 0.000D+00 0.340D-01 0.966D+00
 Coeff:     -0.395D+00 0.490D+00 0.203D-01-0.537D-01 0.353D+00 0.585D+00
 Gap=     0.107 Goal=   None    Shift=    0.000
 Gap=     0.078 Goal=   None    Shift=    0.000
 RMSDP=2.38D-04 MaxDP=9.03D-03 DE=-2.12D-02 OVMax= 2.73D-02

 Cycle   7  Pass 1  IDiag  1:
 RMSU=  2.13D-04    CP:  9.75D-01  3.00D+00  1.62D-01  2.87D-01  1.00D+00
                    CP:  8.13D-01
 E= -3159.62310098299     Delta-E=       -0.001934898291 Rises=F Damp=F
 DIIS: error= 1.53D-03 at cycle   7 NSaved=   7.
 NSaved= 7 IEnMin= 7 EnMin= -3159.62310098299     IErMin= 7 ErrMin= 1.53D-03
 ErrMax= 1.53D-03  0.00D+00 EMaxC= 1.00D-01 BMatC= 9.60D-03 BMatP= 1.47D-02
 IDIUse=3 WtCom= 9.85D-01 WtEn= 1.53D-02
 Coeff-Com: -0.564D-01 0.578D-01 0.986D-03-0.124D-01 0.115D+00 0.447D+00
 Coeff-Com:  0.448D+00
 Coeff-En:   0.000D+00 0.000D+00 0.000D+00 0.000D+00 0.000D+00 0.374D+00
 Coeff-En:   0.626D+00
 Coeff:     -0.555D-01 0.569D-01 0.971D-03-0.122D-01 0.114D+00 0.446D+00
 Coeff:      0.450D+00
 Gap=     0.105 Goal=   None    Shift=    0.000
 Gap=     0.077 Goal=   None    Shift=    0.000
 RMSDP=1.28D-04 MaxDP=6.28D-03 DE=-1.93D-03 OVMax= 1.49D-02

 Cycle   8  Pass 1  IDiag  1:
 RMSU=  8.94D-05    CP:  9.75D-01  3.00D+00  1.59D-01  3.02D-01  1.01D+00
                    CP:  9.14D-01  6.54D-01
 E= -3159.62555210412     Delta-E=       -0.002451121135 Rises=F Damp=F
 DIIS: error= 4.34D-04 at cycle   8 NSaved=   8.
 NSaved= 8 IEnMin= 8 EnMin= -3159.62555210412     IErMin= 8 ErrMin= 4.34D-04
 ErrMax= 4.34D-04  0.00D+00 EMaxC= 1.00D-01 BMatC= 8.76D-04 BMatP= 9.60D-03
 IDIUse=3 WtCom= 9.96D-01 WtEn= 4.34D-03
 Coeff-Com:  0.192D-01-0.294D-01-0.326D-02 0.852D-03 0.216D-02 0.156D+00
 Coeff-Com:  0.268D+00 0.586D+00
 Coeff-En:   0.000D+00 0.000D+00 0.000D+00 0.000D+00 0.000D+00 0.000D+00
 Coeff-En:   0.238D-01 0.976D+00
 Coeff:      0.191D-01-0.292D-01-0.325D-02 0.848D-03 0.216D-02 0.155D+00
 Coeff:      0.267D+00 0.588D+00
 Gap=     0.105 Goal=   None    Shift=    0.000
 Gap=     0.077 Goal=   None    Shift=    0.000
 RMSDP=4.02D-05 MaxDP=2.44D-03 DE=-2.45D-03 OVMax= 5.09D-03

 Cycle   9  Pass 1  IDiag  1:
 RMSU=  3.11D-05    CP:  9.75D-01  3.00D+00  1.59D-01  3.03D-01  1.02D+00
                    CP:  9.43D-01  7.20D-01  8.42D-01
 E= -3159.62573874883     Delta-E=       -0.000186644707 Rises=F Damp=F
 DIIS: error= 2.38D-04 at cycle   9 NSaved=   9.
 NSaved= 9 IEnMin= 9 EnMin= -3159.62573874883     IErMin= 9 ErrMin= 2.38D-04
 ErrMax= 2.38D-04  0.00D+00 EMaxC= 1.00D-01 BMatC= 1.91D-04 BMatP= 8.76D-04
 IDIUse=3 WtCom= 9.98D-01 WtEn= 2.38D-03
 Coeff-Com:  0.782D-02-0.110D-01-0.215D-02 0.161D-02-0.996D-02 0.353D-01
 Coeff-Com:  0.101D+00 0.346D+00 0.531D+00
 Coeff-En:   0.000D+00 0.000D+00 0.000D+00 0.000D+00 0.000D+00 0.000D+00
 Coeff-En:   0.000D+00 0.277D-01 0.972D+00
 Coeff:      0.781D-02-0.110D-01-0.215D-02 0.160D-02-0.994D-02 0.352D-01
 Coeff:      0.101D+00 0.346D+00 0.532D+00
 Gap=     0.105 Goal=   None    Shift=    0.000
 Gap=     0.077 Goal=   None    Shift=    0.000
 RMSDP=1.66D-05 MaxDP=9.66D-04 DE=-1.87D-04 OVMax= 1.69D-03

 Cycle  10  Pass 1  IDiag  1:
 RMSU=  1.41D-05    CP:  9.75D-01  3.00D+00  1.57D-01  3.05D-01  1.02D+00
                    CP:  9.45D-01  7.31D-01  9.05D-01  8.54D-01
 E= -3159.62577564875     Delta-E=       -0.000036899919 Rises=F Damp=F
 DIIS: error= 1.29D-04 at cycle  10 NSaved=  10.
 NSaved=10 IEnMin=10 EnMin= -3159.62577564875     IErMin=10 ErrMin= 1.29D-04
 ErrMax= 1.29D-04  0.00D+00 EMaxC= 1.00D-01 BMatC= 4.74D-05 BMatP= 1.91D-04
 IDIUse=3 WtCom= 9.99D-01 WtEn= 1.29D-03
 Coeff-Com: -0.434D-02 0.572D-02-0.627D-03 0.742D-03-0.364D-02-0.119D-01
 Coeff-Com:  0.240D-02 0.671D-01 0.339D+00 0.605D+00
 Coeff-En:   0.000D+00 0.000D+00 0.000D+00 0.000D+00 0.000D+00 0.000D+00
 Coeff-En:   0.000D+00 0.000D+00 0.981D-01 0.902D+00
 Coeff:     -0.433D-02 0.571D-02-0.626D-03 0.741D-03-0.364D-02-0.119D-01
 Coeff:      0.239D-02 0.670D-01 0.339D+00 0.606D+00
 Gap=     0.105 Goal=   None    Shift=    0.000
 Gap=     0.077 Goal=   None    Shift=    0.000
 RMSDP=9.34D-06 MaxDP=4.96D-04 DE=-3.69D-05 OVMax= 1.37D-03

 Cycle  11  Pass 1  IDiag  1:
 RMSU=  6.97D-06    CP:  9.75D-01  3.00D+00  1.57D-01  3.06D-01  1.02D+00
                    CP:  9.47D-01  7.37D-01  9.38D-01  9.52D-01  7.64D-01
 E= -3159.62578599747     Delta-E=       -0.000010348722 Rises=F Damp=F
 DIIS: error= 5.22D-05 at cycle  11 NSaved=  11.
 NSaved=11 IEnMin=11 EnMin= -3159.62578599747     IErMin=11 ErrMin= 5.22D-05
 ErrMax= 5.22D-05  0.00D+00 EMaxC= 1.00D-01 BMatC= 1.10D-05 BMatP= 4.74D-05
 IDIUse=1 WtCom= 1.00D+00 WtEn= 0.00D+00
 Coeff-Com: -0.382D-02 0.500D-02-0.702D-04 0.329D-03-0.500D-03-0.130D-01
 Coeff-Com: -0.158D-01-0.307D-01 0.104D+00 0.401D+00 0.554D+00
 Coeff:     -0.382D-02 0.500D-02-0.702D-04 0.329D-03-0.500D-03-0.130D-01
 Coeff:     -0.158D-01-0.307D-01 0.104D+00 0.401D+00 0.554D+00
 Gap=     0.105 Goal=   None    Shift=    0.000
 Gap=     0.077 Goal=   None    Shift=    0.000
 RMSDP=5.27D-06 MaxDP=4.01D-04 DE=-1.03D-05 OVMax= 1.05D-03

 Cycle  12  Pass 1  IDiag  1:
 RMSU=  4.22D-06    CP:  9.75D-01  3.00D+00  1.57D-01  3.06D-01  1.02D+00
                    CP:  9.47D-01  7.44D-01  9.51D-01  9.91D-01  8.77D-01
                    CP:  7.90D-01
 E= -3159.62578903146     Delta-E=       -0.000003033985 Rises=F Damp=F
 DIIS: error= 2.48D-05 at cycle  12 NSaved=  12.
 NSaved=12 IEnMin=12 EnMin= -3159.62578903146     IErMin=12 ErrMin= 2.48D-05
 ErrMax= 2.48D-05  0.00D+00 EMaxC= 1.00D-01 BMatC= 2.35D-06 BMatP= 1.10D-05
 IDIUse=1 WtCom= 1.00D+00 WtEn= 0.00D+00
 Coeff-Com: -0.754D-03 0.998D-03 0.277D-04 0.113D-03-0.180D-03-0.460D-02
 Coeff-Com: -0.764D-02-0.296D-01-0.148D-01 0.939D-01 0.361D+00 0.602D+00
 Coeff:     -0.754D-03 0.998D-03 0.277D-04 0.113D-03-0.180D-03-0.460D-02
 Coeff:     -0.764D-02-0.296D-01-0.148D-01 0.939D-01 0.361D+00 0.602D+00
 Gap=     0.105 Goal=   None    Shift=    0.000
 Gap=     0.077 Goal=   None    Shift=    0.000
 RMSDP=3.22D-06 MaxDP=3.78D-04 DE=-3.03D-06 OVMax= 9.73D-04

 Cycle  13  Pass 1  IDiag  1:
 RMSU=  2.35D-06    CP:  9.75D-01  3.00D+00  1.57D-01  3.07D-01  1.02D+00
                    CP:  9.48D-01  7.45D-01  9.53D-01  1.02D+00  9.55D-01
                    CP:  9.97D-01  9.31D-01
 E= -3159.62578997088     Delta-E=       -0.000000939423 Rises=F Damp=F
 DIIS: error= 1.41D-05 at cycle  13 NSaved=  13.
 NSaved=13 IEnMin=13 EnMin= -3159.62578997088     IErMin=13 ErrMin= 1.41D-05
 ErrMax= 1.41D-05  0.00D+00 EMaxC= 1.00D-01 BMatC= 8.63D-07 BMatP= 2.35D-06
 IDIUse=1 WtCom= 1.00D+00 WtEn= 0.00D+00
 Coeff-Com:  0.125D-04-0.972D-05 0.455D-04-0.122D-04-0.153D-03-0.762D-03
 Coeff-Com: -0.231D-02-0.148D-01-0.286D-01-0.341D-02 0.158D+00 0.423D+00
 Coeff-Com:  0.469D+00
 Coeff:      0.125D-04-0.972D-05 0.455D-04-0.122D-04-0.153D-03-0.762D-03
 Coeff:     -0.231D-02-0.148D-01-0.286D-01-0.341D-02 0.158D+00 0.423D+00
 Coeff:      0.469D+00
 Gap=     0.105 Goal=   None    Shift=    0.000
 Gap=     0.077 Goal=   None    Shift=    0.000
 RMSDP=1.77D-06 MaxDP=2.60D-04 DE=-9.39D-07 OVMax= 6.77D-04

 Cycle  14  Pass 1  IDiag  1:
 RMSU=  1.20D-06    CP:  9.75D-01  3.00D+00  1.57D-01  3.07D-01  1.02D+00
                    CP:  9.49D-01  7.45D-01  9.54D-01  1.02D+00  9.64D-01
                    CP:  1.10D+00  1.17D+00  1.02D+00
 E= -3159.62579042483     Delta-E=       -0.000000453955 Rises=F Damp=F
 DIIS: error= 8.55D-06 at cycle  14 NSaved=  14.
 NSaved=14 IEnMin=14 EnMin= -3159.62579042483     IErMin=14 ErrMin= 8.55D-06
 ErrMax= 8.55D-06  0.00D+00 EMaxC= 1.00D-01 BMatC= 1.96D-07 BMatP= 8.63D-07
 IDIUse=1 WtCom= 1.00D+00 WtEn= 0.00D+00
 Coeff-Com:  0.459D-03-0.580D-03 0.125D-04-0.521D-04 0.728D-04 0.168D-02
 Coeff-Com:  0.214D-02 0.658D-02-0.730D-02-0.427D-01-0.798D-01-0.553D-01
 Coeff-Com:  0.233D+00 0.942D+00
 Coeff:      0.459D-03-0.580D-03 0.125D-04-0.521D-04 0.728D-04 0.168D-02
 Coeff:      0.214D-02 0.658D-02-0.730D-02-0.427D-01-0.798D-01-0.553D-01
 Coeff:      0.233D+00 0.942D+00
 Gap=     0.105 Goal=   None    Shift=    0.000
 Gap=     0.077 Goal=   None    Shift=    0.000
 RMSDP=2.50D-06 MaxDP=4.58D-04 DE=-4.54D-07 OVMax= 1.23D-03

 Cycle  15  Pass 1  IDiag  1:
 RMSU=  8.38D-07    CP:  9.75D-01  3.00D+00  1.57D-01  3.07D-01  1.02D+00
                    CP:  9.49D-01  7.45D-01  9.57D-01  1.03D+00  1.00D+00
                    CP:  1.24D+00  1.48D+00  1.62D+00  1.62D+00
 E= -3159.62579083330     Delta-E=       -0.000000408470 Rises=F Damp=F
 DIIS: error= 7.98D-06 at cycle  15 NSaved=  15.
 NSaved=15 IEnMin=15 EnMin= -3159.62579083330     IErMin=15 ErrMin= 7.98D-06
 ErrMax= 7.98D-06  0.00D+00 EMaxC= 1.00D-01 BMatC= 1.17D-07 BMatP= 1.96D-07
 IDIUse=1 WtCom= 1.00D+00 WtEn= 0.00D+00
 Coeff-Com:  0.308D-03-0.380D-03-0.730D-05-0.250D-04 0.261D-03 0.130D-02
 Coeff-Com:  0.201D-02 0.927D-02 0.511D-02-0.306D-01-0.122D+00-0.213D+00
 Coeff-Com: -0.422D-01 0.615D+00 0.775D+00
 Coeff:      0.308D-03-0.380D-03-0.730D-05-0.250D-04 0.261D-03 0.130D-02
 Coeff:      0.201D-02 0.927D-02 0.511D-02-0.306D-01-0.122D+00-0.213D+00
 Coeff:     -0.422D-01 0.615D+00 0.775D+00
 Gap=     0.105 Goal=   None    Shift=    0.000
 Gap=     0.077 Goal=   None    Shift=    0.000
 RMSDP=2.41D-06 MaxDP=4.43D-04 DE=-4.08D-07 OVMax= 1.23D-03

 Cycle  16  Pass 1  IDiag  1:
 RMSU=  5.89D-07    CP:  9.75D-01  3.00D+00  1.57D-01  3.07D-01  1.02D+00
                    CP:  9.49D-01  7.45D-01  9.58D-01  1.04D+00  1.03D+00
                    CP:  1.37D+00  1.75D+00  2.16D+00  2.48D+00  1.66D+00
 E= -3159.62579114226     Delta-E=       -0.000000308953 Rises=F Damp=F
 DIIS: error= 7.25D-06 at cycle  16 NSaved=  16.
 NSaved=16 IEnMin=16 EnMin= -3159.62579114226     IErMin=16 ErrMin= 7.25D-06
 ErrMax= 7.25D-06  0.00D+00 EMaxC= 1.00D-01 BMatC= 6.56D-08 BMatP= 1.17D-07
 IDIUse=1 WtCom= 1.00D+00 WtEn= 0.00D+00
 Coeff-Com:  0.287D-04-0.332D-04-0.890D-05 0.473D-05 0.181D-03 0.292D-03
 Coeff-Com:  0.464D-03 0.242D-02 0.181D-02-0.899D-02-0.431D-01-0.877D-01
 Coeff-Com: -0.850D-01 0.389D-01 0.432D+00 0.749D+00
 Coeff:      0.287D-04-0.332D-04-0.890D-05 0.473D-05 0.181D-03 0.292D-03
 Coeff:      0.464D-03 0.242D-02 0.181D-02-0.899D-02-0.431D-01-0.877D-01
 Coeff:     -0.850D-01 0.389D-01 0.432D+00 0.749D+00
 Gap=     0.105 Goal=   None    Shift=    0.000
 Gap=     0.077 Goal=   None    Shift=    0.000
 RMSDP=1.84D-06 MaxDP=3.23D-04 DE=-3.09D-07 OVMax= 9.73D-04

 Cycle  17  Pass 1  IDiag  1:
 RMSU=  4.13D-07    CP:  9.75D-01  3.00D+00  1.57D-01  3.07D-01  1.02D+00
                    CP:  9.49D-01  7.45D-01  9.59D-01  1.05D+00  1.05D+00
                    CP:  1.45D+00  1.94D+00  2.55D+00  3.00D+00  2.51D+00
                    CP:  1.69D+00
 E= -3159.62579134380     Delta-E=       -0.000000201542 Rises=F Damp=F
 DIIS: error= 6.67D-06 at cycle  17 NSaved=  17.
 NSaved=17 IEnMin=17 EnMin= -3159.62579134380     IErMin=17 ErrMin= 6.67D-06
 ErrMax= 6.67D-06  0.00D+00 EMaxC= 1.00D-01 BMatC= 4.40D-08 BMatP= 6.56D-08
 IDIUse=1 WtCom= 1.00D+00 WtEn= 0.00D+00
 Coeff-Com: -0.694D-04 0.823D-04-0.373D-05 0.162D-04-0.566D-04-0.314D-03
 Coeff-Com: -0.411D-03-0.259D-02-0.302D-02 0.532D-02 0.297D-01 0.563D-01
 Coeff-Com: -0.146D-01-0.248D+00-0.137D+00 0.388D+00 0.927D+00
 Coeff:     -0.694D-04 0.823D-04-0.373D-05 0.162D-04-0.566D-04-0.314D-03
 Coeff:     -0.411D-03-0.259D-02-0.302D-02 0.532D-02 0.297D-01 0.563D-01
 Coeff:     -0.146D-01-0.248D+00-0.137D+00 0.388D+00 0.927D+00
 Gap=     0.105 Goal=   None    Shift=    0.000
 Gap=     0.077 Goal=   None    Shift=    0.000
 RMSDP=2.06D-06 MaxDP=3.37D-04 DE=-2.02D-07 OVMax= 1.10D-03

 Cycle  18  Pass 1  IDiag  1:
 RMSU=  8.92D-07    CP:  9.75D-01  3.00D+00  1.57D-01  3.07D-01  1.02D+00
                    CP:  9.49D-01  7.46D-01  9.60D-01  1.05D+00  1.07D+00
                    CP:  1.53D+00  2.13D+00  2.97D+00  3.00D+00  3.00D+00
                    CP:  2.89D+00  2.52D+00
 E= -3159.62579154912     Delta-E=       -0.000000205323 Rises=F Damp=F
 DIIS: error= 6.20D-06 at cycle  18 NSaved=  18.
 NSaved=18 IEnMin=18 EnMin= -3159.62579154912     IErMin=18 ErrMin= 6.20D-06
 ErrMax= 6.20D-06  0.00D+00 EMaxC= 1.00D-01 BMatC= 3.71D-08 BMatP= 4.40D-08
 IDIUse=1 WtCom= 1.00D+00 WtEn= 0.00D+00
 Coeff-Com: -0.139D-04 0.987D-05 0.120D-05 0.870D-05-0.223D-03-0.328D-03
 Coeff-Com: -0.291D-03-0.274D-02-0.307D-02 0.100D-01 0.531D-01 0.111D+00
 Coeff-Com:  0.610D-01-0.205D+00-0.455D+00-0.338D+00 0.682D+00 0.109D+01
 Coeff:     -0.139D-04 0.987D-05 0.120D-05 0.870D-05-0.223D-03-0.328D-03
 Coeff:     -0.291D-03-0.274D-02-0.307D-02 0.100D-01 0.531D-01 0.111D+00
 Coeff:      0.610D-01-0.205D+00-0.455D+00-0.338D+00 0.682D+00 0.109D+01
 Gap=     0.105 Goal=   None    Shift=    0.000
 Gap=     0.077 Goal=   None    Shift=    0.000
 RMSDP=3.06D-06 MaxDP=5.07D-04 DE=-2.05D-07 OVMax= 1.65D-03

 Cycle  19  Pass 1  IDiag  1:
 RMSU=  2.03D-06    CP:  9.75D-01  3.00D+00  1.57D-01  3.07D-01  1.02D+00
                    CP:  9.49D-01  7.46D-01  9.61D-01  1.06D+00  1.09D+00
                    CP:  1.63D+00  2.39D+00  3.00D+00  3.00D+00  3.00D+00
                    CP:  3.00D+00  3.00D+00  2.81D+00
 E= -3159.62579182691     Delta-E=       -0.000000277788 Rises=F Damp=F
 DIIS: error= 5.52D-06 at cycle  19 NSaved=  19.
 NSaved=19 IEnMin=19 EnMin= -3159.62579182691     IErMin=19 ErrMin= 5.52D-06
 ErrMax= 5.52D-06  0.00D+00 EMaxC= 1.00D-01 BMatC= 2.95D-08 BMatP= 3.71D-08
 IDIUse=1 WtCom= 1.00D+00 WtEn= 0.00D+00
 Coeff-Com:  0.106D-03-0.129D-03 0.203D-05-0.549D-05-0.139D-03 0.279D-04
 Coeff-Com:  0.244D-03 0.847D-03 0.113D-02 0.280D-02 0.140D-01 0.342D-01
 Coeff-Com:  0.718D-01 0.764D-01-0.241D+00-0.678D+00-0.391D+00 0.832D+00
 Coeff-Com:  0.128D+01
 Coeff:      0.106D-03-0.129D-03 0.203D-05-0.549D-05-0.139D-03 0.279D-04
 Coeff:      0.244D-03 0.847D-03 0.113D-02 0.280D-02 0.140D-01 0.342D-01
 Coeff:      0.718D-01 0.764D-01-0.241D+00-0.678D+00-0.391D+00 0.832D+00
 Coeff:      0.128D+01
 Gap=     0.105 Goal=   None    Shift=    0.000
 Gap=     0.077 Goal=   None    Shift=    0.000
 RMSDP=4.74D-06 MaxDP=8.31D-04 DE=-2.78D-07 OVMax= 2.56D-03

 Cycle  20  Pass 1  IDiag  1:
 RMSU=  2.40D-06    CP:  9.75D-01  3.00D+00  1.57D-01  3.07D-01  1.02D+00
                    CP:  9.50D-01  7.46D-01  9.62D-01  1.07D+00  1.13D+00
                    CP:  1.79D+00  2.77D+00  3.00D+00  3.00D+00  3.00D+00
                    CP:  3.00D+00  3.00D+00  3.00D+00  2.69D+00
 E= -3159.62579219234     Delta-E=       -0.000000365434 Rises=F Damp=F
 DIIS: error= 4.53D-06 at cycle  20 NSaved=  20.
 NSaved=20 IEnMin=20 EnMin= -3159.62579219234     IErMin=20 ErrMin= 4.53D-06
 ErrMax= 4.53D-06  0.00D+00 EMaxC= 1.00D-01 BMatC= 2.21D-08 BMatP= 2.95D-08
 IDIUse=1 WtCom= 1.00D+00 WtEn= 0.00D+00
 Coeff-Com:  0.178D-03-0.208D-03-0.252D-05-0.775D-05 0.139D-03 0.449D-03
 Coeff-Com:  0.574D-03 0.356D-02 0.230D-02-0.121D-01-0.445D-01-0.788D-01
 Coeff-Com:  0.123D-01 0.290D+00 0.262D+00-0.252D+00-0.110D+01-0.498D+00
 Coeff-Com:  0.110D+01 0.131D+01
 Coeff:      0.178D-03-0.208D-03-0.252D-05-0.775D-05 0.139D-03 0.449D-03
 Coeff:      0.574D-03 0.356D-02 0.230D-02-0.121D-01-0.445D-01-0.788D-01
 Coeff:      0.123D-01 0.290D+00 0.262D+00-0.252D+00-0.110D+01-0.498D+00
 Coeff:      0.110D+01 0.131D+01
 Gap=     0.105 Goal=   None    Shift=    0.000
 Gap=     0.077 Goal=   None    Shift=    0.000
 RMSDP=6.99D-06 MaxDP=1.28D-03 DE=-3.65D-07 OVMax= 3.78D-03

 Cycle  21  Pass 1  IDiag  1:
 Restarting incremental Fock formation.
 E= -3159.62579259017     Delta-E=       -0.000000397830 Rises=F Damp=F
 DIIS: error= 3.03D-06 at cycle  21 NSaved=  20.
 NSaved=20 IEnMin=20 EnMin= -3159.62579259017     IErMin=20 ErrMin= 3.03D-06
 ErrMax= 3.03D-06  0.00D+00 EMaxC= 1.00D-01 BMatC= 1.40D-08 BMatP= 2.21D-08
 IDIUse=1 WtCom= 1.00D+00 WtEn= 0.00D+00
 Coeff-Com:  0.260D-04-0.208D-04-0.596D-05 0.274D-03 0.450D-03 0.290D-03
 Coeff-Com:  0.147D-02-0.214D-02-0.158D-01-0.465D-01-0.750D-01-0.405D-01
 Coeff-Com:  0.174D+00 0.387D+00 0.348D+00-0.542D+00-0.110D+01-0.252D+00
 Coeff-Com:  0.109D+01 0.107D+01
 Coeff:      0.260D-04-0.208D-04-0.596D-05 0.274D-03 0.450D-03 0.290D-03
 Coeff:      0.147D-02-0.214D-02-0.158D-01-0.465D-01-0.750D-01-0.405D-01
 Coeff:      0.174D+00 0.387D+00 0.348D+00-0.542D+00-0.110D+01-0.252D+00
 Coeff:      0.109D+01 0.107D+01
 Gap=     0.105 Goal=   None    Shift=    0.000
 Gap=     0.077 Goal=   None    Shift=    0.000
 RMSDP=7.09D-06 MaxDP=1.34D-03 DE=-3.98D-07 OVMax= 3.84D-03

 Cycle  22  Pass 1  IDiag  1:
 RMSU=  7.09D-06    CP:  1.00D+00
 E= -3159.62579282297     Delta-E=       -0.000000232798 Rises=F Damp=F
 DIIS: error= 1.59D-06 at cycle  22 NSaved=  20.
 NSaved=20 IEnMin=20 EnMin= -3159.62579282297     IErMin=20 ErrMin= 1.59D-06
 ErrMax= 1.59D-06  0.00D+00 EMaxC= 1.00D-01 BMatC= 5.76D-09 BMatP= 1.40D-08
 IDIUse=1 WtCom= 1.00D+00 WtEn= 0.00D+00
 Coeff-Com: -0.370D-04 0.441D-04 0.118D-03 0.166D-03 0.556D-04-0.464D-03
 Coeff-Com: -0.265D-02-0.623D-02-0.116D-01-0.128D-01-0.258D-01 0.200D-02
 Coeff-Com:  0.126D+00 0.282D+00 0.777D-01-0.442D+00-0.566D+00 0.165D+00
 Coeff-Com:  0.663D+00 0.753D+00
 Coeff:     -0.370D-04 0.441D-04 0.118D-03 0.166D-03 0.556D-04-0.464D-03
 Coeff:     -0.265D-02-0.623D-02-0.116D-01-0.128D-01-0.258D-01 0.200D-02
 Coeff:      0.126D+00 0.282D+00 0.777D-01-0.442D+00-0.566D+00 0.165D+00
 Coeff:      0.663D+00 0.753D+00
 Gap=     0.105 Goal=   None    Shift=    0.000
 Gap=     0.077 Goal=   None    Shift=    0.000
 RMSDP=2.73D-06 MaxDP=5.52D-04 DE=-2.33D-07 OVMax= 1.48D-03

 Cycle  23  Pass 1  IDiag  1:
 RMSU=  1.93D-07    CP:  1.00D+00  1.38D+00
 E= -3159.62579286837     Delta-E=       -0.000000045397 Rises=F Damp=F
 DIIS: error= 1.20D-06 at cycle  23 NSaved=  20.
 NSaved=20 IEnMin=20 EnMin= -3159.62579286837     IErMin=20 ErrMin= 1.20D-06
 ErrMax= 1.20D-06  0.00D+00 EMaxC= 1.00D-01 BMatC= 2.28D-09 BMatP= 5.76D-09
 IDIUse=1 WtCom= 1.00D+00 WtEn= 0.00D+00
 Coeff-Com: -0.931D-05-0.428D-04-0.618D-05 0.288D-04-0.729D-03-0.987D-03
 Coeff-Com:  0.187D-02 0.133D-01 0.281D-01 0.131D-01-0.574D-01-0.127D+00
 Coeff-Com: -0.734D-01 0.261D+00 0.349D+00-0.115D+00-0.455D+00-0.214D+00
 Coeff-Com:  0.389D+00 0.987D+00
 Coeff:     -0.931D-05-0.428D-04-0.618D-05 0.288D-04-0.729D-03-0.987D-03
 Coeff:      0.187D-02 0.133D-01 0.281D-01 0.131D-01-0.574D-01-0.127D+00
 Coeff:     -0.734D-01 0.261D+00 0.349D+00-0.115D+00-0.455D+00-0.214D+00
 Coeff:      0.389D+00 0.987D+00
 Gap=     0.105 Goal=   None    Shift=    0.000
 Gap=     0.077 Goal=   None    Shift=    0.000
 RMSDP=1.62D-06 MaxDP=3.60D-04 DE=-4.54D-08 OVMax= 8.81D-04

 Cycle  24  Pass 1  IDiag  1:
 RMSU=  1.55D-07    CP:  1.00D+00  1.61D+00  1.86D+00
 E= -3159.62579288437     Delta-E=       -0.000000015998 Rises=F Damp=F
 DIIS: error= 7.95D-07 at cycle  24 NSaved=  20.
 NSaved=20 IEnMin=20 EnMin= -3159.62579288437     IErMin=20 ErrMin= 7.95D-07
 ErrMax= 7.95D-07  0.00D+00 EMaxC= 1.00D-01 BMatC= 9.53D-10 BMatP= 2.28D-09
 IDIUse=1 WtCom= 1.00D+00 WtEn= 0.00D+00
 Coeff-Com: -0.604D-04-0.105D-03-0.688D-04-0.300D-03 0.464D-03 0.393D-02
 Coeff-Com:  0.130D-01 0.225D-01 0.175D-01-0.395D-01-0.122D+00-0.153D+00
 Coeff-Com:  0.116D+00 0.363D+00 0.158D+00-0.311D+00-0.371D+00-0.889D-01
 Coeff-Com:  0.528D+00 0.864D+00
 Coeff:     -0.604D-04-0.105D-03-0.688D-04-0.300D-03 0.464D-03 0.393D-02
 Coeff:      0.130D-01 0.225D-01 0.175D-01-0.395D-01-0.122D+00-0.153D+00
 Coeff:      0.116D+00 0.363D+00 0.158D+00-0.311D+00-0.371D+00-0.889D-01
 Coeff:      0.528D+00 0.864D+00
 Gap=     0.105 Goal=   None    Shift=    0.000
 Gap=     0.077 Goal=   None    Shift=    0.000
 RMSDP=8.86D-07 MaxDP=2.09D-04 DE=-1.60D-08 OVMax= 4.80D-04

 Cycle  25  Pass 1  IDiag  1:
 RMSU=  7.50D-08    CP:  1.00D+00  1.73D+00  2.55D+00  1.56D+00
 E= -3159.62579288917     Delta-E=       -0.000000004802 Rises=F Damp=F
 DIIS: error= 4.67D-07 at cycle  25 NSaved=  20.
 NSaved=20 IEnMin=20 EnMin= -3159.62579288917     IErMin=20 ErrMin= 4.67D-07
 ErrMax= 4.67D-07  0.00D+00 EMaxC= 1.00D-01 BMatC= 6.10D-10 BMatP= 9.53D-10
 IDIUse=1 WtCom= 1.00D+00 WtEn= 0.00D+00
 Coeff-Com: -0.264D-04-0.217D-04 0.142D-03 0.581D-03 0.141D-02 0.218D-02
 Coeff-Com:  0.135D-02 0.431D-02-0.153D-02-0.189D-01-0.577D-01-0.267D-01
 Coeff-Com:  0.834D-01 0.132D+00-0.307D-01-0.157D+00-0.191D+00 0.319D-02
 Coeff-Com:  0.623D+00 0.631D+00
 Coeff:     -0.264D-04-0.217D-04 0.142D-03 0.581D-03 0.141D-02 0.218D-02
 Coeff:      0.135D-02 0.431D-02-0.153D-02-0.189D-01-0.577D-01-0.267D-01
 Coeff:      0.834D-01 0.132D+00-0.307D-01-0.157D+00-0.191D+00 0.319D-02
 Coeff:      0.623D+00 0.631D+00
 Gap=     0.105 Goal=   None    Shift=    0.000
 Gap=     0.077 Goal=   None    Shift=    0.000
 RMSDP=4.07D-07 MaxDP=1.01D-04 DE=-4.80D-09 OVMax= 2.20D-04

 Cycle  26  Pass 1  IDiag  1:
 RMSU=  4.45D-08    CP:  1.00D+00  1.79D+00  2.91D+00  1.96D+00  1.24D+00
 E= -3159.62579289044     Delta-E=       -0.000000001275 Rises=F Damp=F
 DIIS: error= 3.07D-07 at cycle  26 NSaved=  20.
 NSaved=20 IEnMin=20 EnMin= -3159.62579289044     IErMin=20 ErrMin= 3.07D-07
 ErrMax= 3.07D-07  0.00D+00 EMaxC= 1.00D-01 BMatC= 1.75D-10 BMatP= 6.10D-10
 IDIUse=1 WtCom= 1.00D+00 WtEn= 0.00D+00
 Coeff-Com:  0.117D-04 0.204D-03 0.252D-03-0.263D-03-0.194D-02-0.406D-02
 Coeff-Com:  0.669D-03 0.132D-01 0.126D-01-0.732D-02-0.442D-01-0.313D-01
 Coeff-Com:  0.407D-01 0.649D-01 0.157D-01-0.845D-01-0.206D+00-0.498D-02
 Coeff-Com:  0.355D+00 0.882D+00
 Coeff:      0.117D-04 0.204D-03 0.252D-03-0.263D-03-0.194D-02-0.406D-02
 Coeff:      0.669D-03 0.132D-01 0.126D-01-0.732D-02-0.442D-01-0.313D-01
 Coeff:      0.407D-01 0.649D-01 0.157D-01-0.845D-01-0.206D+00-0.498D-02
 Coeff:      0.355D+00 0.882D+00
 Gap=     0.105 Goal=   None    Shift=    0.000
 Gap=     0.077 Goal=   None    Shift=    0.000
 RMSDP=1.99D-07 MaxDP=6.04D-05 DE=-1.28D-09 OVMax= 1.07D-04

 Cycle  27  Pass 1  IDiag  1:
 RMSU=  6.57D-08    CP:  1.00D+00  1.81D+00  3.00D+00  2.37D+00  1.73D+00
                    CP:  1.54D+00
 E= -3159.62579289104     Delta-E=       -0.000000000591 Rises=F Damp=F
 DIIS: error= 2.22D-07 at cycle  27 NSaved=  20.
 NSaved=20 IEnMin=20 EnMin= -3159.62579289104     IErMin=20 ErrMin= 2.22D-07
 ErrMax= 2.22D-07  0.00D+00 EMaxC= 1.00D-01 BMatC= 8.08D-11 BMatP= 1.75D-10
 IDIUse=1 WtCom= 1.00D+00 WtEn= 0.00D+00
 Coeff-Com:  0.732D-04 0.171D-04-0.514D-03-0.218D-02-0.411D-02-0.217D-02
 Coeff-Com:  0.987D-02 0.195D-01 0.175D-01-0.260D-01-0.532D-01-0.917D-02
 Coeff-Com:  0.541D-01 0.506D-01-0.464D-02-0.127D+00-0.146D+00 0.739D-01
 Coeff-Com:  0.499D+00 0.651D+00
 Coeff:      0.732D-04 0.171D-04-0.514D-03-0.218D-02-0.411D-02-0.217D-02
 Coeff:      0.987D-02 0.195D-01 0.175D-01-0.260D-01-0.532D-01-0.917D-02
 Coeff:      0.541D-01 0.506D-01-0.464D-02-0.127D+00-0.146D+00 0.739D-01
 Coeff:      0.499D+00 0.651D+00
 Gap=     0.105 Goal=   None    Shift=    0.000
 Gap=     0.077 Goal=   None    Shift=    0.000
 RMSDP=5.76D-08 MaxDP=1.76D-05 DE=-5.91D-10 OVMax= 3.07D-05

 Cycle  28  Pass 1  IDiag  1:
 RMSU=  1.63D-08    CP:  1.00D+00  1.81D+00  3.00D+00  2.52D+00  2.00D+00
                    CP:  2.03D+00  1.47D+00
 E= -3159.62579289122     Delta-E=       -0.000000000181 Rises=F Damp=F
 DIIS: error= 2.10D-07 at cycle  28 NSaved=  20.
 NSaved=20 IEnMin=20 EnMin= -3159.62579289122     IErMin=20 ErrMin= 2.10D-07
 ErrMax= 2.10D-07  0.00D+00 EMaxC= 1.00D-01 BMatC= 4.64D-11 BMatP= 8.08D-11
 IDIUse=1 WtCom= 1.00D+00 WtEn= 0.00D+00
 Coeff-Com: -0.135D-04-0.116D-03-0.669D-03-0.125D-02-0.199D-02 0.737D-03
 Coeff-Com:  0.711D-02 0.140D-01 0.373D-02-0.191D-01-0.228D-01 0.468D-02
 Coeff-Com:  0.240D-01 0.338D-01 0.704D-02-0.891D-01-0.102D+00-0.473D-01
 Coeff-Com:  0.373D+00 0.816D+00
 Coeff:     -0.135D-04-0.116D-03-0.669D-03-0.125D-02-0.199D-02 0.737D-03
 Coeff:      0.711D-02 0.140D-01 0.373D-02-0.191D-01-0.228D-01 0.468D-02
 Coeff:      0.240D-01 0.338D-01 0.704D-02-0.891D-01-0.102D+00-0.473D-01
 Coeff:      0.373D+00 0.816D+00
 Gap=     0.105 Goal=   None    Shift=    0.000
 Gap=     0.077 Goal=   None    Shift=    0.000
 RMSDP=5.29D-08 MaxDP=1.08D-05 DE=-1.81D-10 OVMax= 2.82D-05

 Cycle  29  Pass 1  IDiag  1:
 RMSU=  1.65D-08    CP:  1.00D+00  1.81D+00  3.00D+00  2.65D+00  2.28D+00
                    CP:  2.61D+00  1.90D+00  1.96D+00
 E= -3159.62579289139     Delta-E=       -0.000000000170 Rises=F Damp=F
 DIIS: error= 2.00D-07 at cycle  29 NSaved=  20.
 NSaved=20 IEnMin=20 EnMin= -3159.62579289139     IErMin=20 ErrMin= 2.00D-07
 ErrMax= 2.00D-07  0.00D+00 EMaxC= 1.00D-01 BMatC= 3.18D-11 BMatP= 4.64D-11
 IDIUse=1 WtCom= 1.00D+00 WtEn= 0.00D+00
 Coeff-Com:  0.251D-03 0.105D-02 0.207D-02 0.464D-03-0.658D-02-0.966D-02
 Coeff-Com: -0.480D-02 0.187D-01 0.247D-01-0.532D-02-0.316D-01-0.199D-01
 Coeff-Com:  0.174D-01 0.868D-01 0.730D-01-0.980D-01-0.371D+00-0.346D+00
 Coeff-Com:  0.274D+00 0.139D+01
 Coeff:      0.251D-03 0.105D-02 0.207D-02 0.464D-03-0.658D-02-0.966D-02
 Coeff:     -0.480D-02 0.187D-01 0.247D-01-0.532D-02-0.316D-01-0.199D-01
 Coeff:      0.174D-01 0.868D-01 0.730D-01-0.980D-01-0.371D+00-0.346D+00
 Coeff:      0.274D+00 0.139D+01
 Gap=     0.105 Goal=   None    Shift=    0.000
 Gap=     0.077 Goal=   None    Shift=    0.000
 RMSDP=8.97D-08 MaxDP=1.75D-05 DE=-1.70D-10 OVMax= 4.86D-05

 Cycle  30  Pass 1  IDiag  1:
 RMSU=  3.54D-08    CP:  1.00D+00  1.81D+00  3.00D+00  2.81D+00  2.72D+00
                    CP:  3.00D+00  2.55D+00  3.00D+00  2.98D+00
 E= -3159.62579289164     Delta-E=       -0.000000000250 Rises=F Damp=F
 DIIS: error= 1.90D-07 at cycle  30 NSaved=  20.
 NSaved=20 IEnMin=20 EnMin= -3159.62579289164     IErMin=20 ErrMin= 1.90D-07
 ErrMax= 1.90D-07  0.00D+00 EMaxC= 1.00D-01 BMatC= 2.62D-11 BMatP= 3.18D-11
 IDIUse=1 WtCom= 1.00D+00 WtEn= 0.00D+00
 Coeff-Com:  0.568D-03 0.144D-02 0.109D-02-0.287D-02-0.732D-02-0.861D-02
 Coeff-Com:  0.708D-02 0.218D-01 0.535D-02-0.205D-01-0.200D-01 0.228D-02
 Coeff-Com:  0.525D-01 0.686D-01-0.279D-01-0.202D+00-0.356D+00-0.200D+00
 Coeff-Com:  0.789D+00 0.896D+00
 Coeff:      0.568D-03 0.144D-02 0.109D-02-0.287D-02-0.732D-02-0.861D-02
 Coeff:      0.708D-02 0.218D-01 0.535D-02-0.205D-01-0.200D-01 0.228D-02
 Coeff:      0.525D-01 0.686D-01-0.279D-01-0.202D+00-0.356D+00-0.200D+00
 Coeff:      0.789D+00 0.896D+00
 Gap=     0.105 Goal=   None    Shift=    0.000
 Gap=     0.077 Goal=   None    Shift=    0.000
 RMSDP=7.28D-08 MaxDP=1.63D-05 DE=-2.50D-10 OVMax= 3.99D-05

 Cycle  31  Pass 1  IDiag  1:
 RMSU=  3.34D-08    CP:  1.00D+00  1.82D+00  3.00D+00  2.93D+00  3.00D+00
                    CP:  3.00D+00  3.00D+00  3.00D+00  3.00D+00  2.28D+00
 E= -3159.62579289178     Delta-E=       -0.000000000142 Rises=F Damp=F
 DIIS: error= 1.77D-07 at cycle  31 NSaved=  20.
 NSaved=20 IEnMin=20 EnMin= -3159.62579289178     IErMin=20 ErrMin= 1.77D-07
 ErrMax= 1.77D-07  0.00D+00 EMaxC= 1.00D-01 BMatC= 2.72D-11 BMatP= 2.62D-11
 IDIUse=1 WtCom= 1.00D+00 WtEn= 0.00D+00
 Coeff-Com:  0.810D-04 0.136D-02 0.234D-02-0.282D-02-0.120D-01-0.966D-02
 Coeff-Com:  0.118D-01 0.205D-01 0.154D-02-0.168D-01-0.261D-01-0.930D-02
 Coeff-Com:  0.651D-01 0.673D-01 0.239D-01-0.224D+00-0.491D+00-0.327D-01
 Coeff-Com:  0.962D+00 0.668D+00
 Coeff:      0.810D-04 0.136D-02 0.234D-02-0.282D-02-0.120D-01-0.966D-02
 Coeff:      0.118D-01 0.205D-01 0.154D-02-0.168D-01-0.261D-01-0.930D-02
 Coeff:      0.651D-01 0.673D-01 0.239D-01-0.224D+00-0.491D+00-0.327D-01
 Coeff:      0.962D+00 0.668D+00
 Gap=     0.105 Goal=   None    Shift=    0.000
 Gap=     0.077 Goal=   None    Shift=    0.000
 RMSDP=8.11D-08 MaxDP=1.97D-05 DE=-1.42D-10 OVMax= 4.49D-05

 Cycle  32  Pass 1  IDiag  1:
 RMSU=  4.72D-08    CP:  1.00D+00  1.82D+00  3.00D+00  3.00D+00  3.00D+00
                    CP:  3.00D+00  3.00D+00  3.00D+00  3.00D+00  3.00D+00
                    CP:  2.25D+00
 E= -3159.62579289195     Delta-E=       -0.000000000170 Rises=F Damp=F
 DIIS: error= 1.59D-07 at cycle  32 NSaved=  20.
 NSaved=20 IEnMin=20 EnMin= -3159.62579289195     IErMin=20 ErrMin= 1.59D-07
 ErrMax= 1.59D-07  0.00D+00 EMaxC= 1.00D-01 BMatC= 2.02D-11 BMatP= 2.62D-11
 IDIUse=1 WtCom= 1.00D+00 WtEn= 0.00D+00
 Coeff-Com:  0.160D-02 0.367D-02-0.141D-02-0.131D-01-0.161D-01 0.856D-02
 Coeff-Com:  0.285D-01 0.897D-02-0.184D-01-0.361D-01-0.317D-01 0.551D-01
 Coeff-Com:  0.102D+00 0.134D+00-0.108D+00-0.501D+00-0.504D+00 0.599D+00
 Coeff-Com:  0.652D+00 0.636D+00
 Coeff:      0.160D-02 0.367D-02-0.141D-02-0.131D-01-0.161D-01 0.856D-02
 Coeff:      0.285D-01 0.897D-02-0.184D-01-0.361D-01-0.317D-01 0.551D-01
 Coeff:      0.102D+00 0.134D+00-0.108D+00-0.501D+00-0.504D+00 0.599D+00
 Coeff:      0.652D+00 0.636D+00
 Gap=     0.105 Goal=   None    Shift=    0.000
 Gap=     0.077 Goal=   None    Shift=    0.000
 RMSDP=8.88D-08 MaxDP=2.04D-05 DE=-1.70D-10 OVMax= 4.89D-05

 Cycle  33  Pass 1  IDiag  1:
 RMSU=  3.67D-08    CP:  1.00D+00  1.82D+00  3.00D+00  3.00D+00  3.00D+00
                    CP:  3.00D+00  3.00D+00  3.00D+00  3.00D+00  3.00D+00
                    CP:  3.00D+00  2.45D+00
 E= -3159.62579289209     Delta-E=       -0.000000000144 Rises=F Damp=F
 DIIS: error= 1.35D-07 at cycle  33 NSaved=  20.
 NSaved=20 IEnMin=20 EnMin= -3159.62579289209     IErMin=20 ErrMin= 1.35D-07
 ErrMax= 1.35D-07  0.00D+00 EMaxC= 1.00D-01 BMatC= 1.17D-11 BMatP= 2.02D-11
 IDIUse=1 WtCom= 1.00D+00 WtEn= 0.00D+00
 Coeff-Com:  0.915D-03 0.341D-03 0.577D-03 0.179D-02-0.163D-03-0.173D-02
 Coeff-Com: -0.231D-03 0.261D-02 0.399D-02-0.160D-01-0.378D-01-0.941D-02
 Coeff-Com:  0.829D-01 0.242D+00 0.291D+00-0.426D+00-0.810D+00-0.163D+00
 Coeff-Com:  0.442D+00 0.140D+01
 Coeff:      0.915D-03 0.341D-03 0.577D-03 0.179D-02-0.163D-03-0.173D-02
 Coeff:     -0.231D-03 0.261D-02 0.399D-02-0.160D-01-0.378D-01-0.941D-02
 Coeff:      0.829D-01 0.242D+00 0.291D+00-0.426D+00-0.810D+00-0.163D+00
 Coeff:      0.442D+00 0.140D+01
 Gap=     0.105 Goal=   None    Shift=    0.000
 Gap=     0.077 Goal=   None    Shift=    0.000
 RMSDP=1.16D-07 MaxDP=2.59D-05 DE=-1.44D-10 OVMax= 6.37D-05

 Cycle  34  Pass 1  IDiag  1:
 RMSU=  6.89D-08    CP:  1.00D+00  1.82D+00  3.00D+00  3.00D+00  3.00D+00
                    CP:  3.00D+00  3.00D+00  3.00D+00  3.00D+00  3.00D+00
                    CP:  3.00D+00  3.00D+00  2.88D+00
 E= -3159.62579289217     Delta-E=       -0.000000000076 Rises=F Damp=F
 DIIS: error= 8.70D-08 at cycle  34 NSaved=  20.
 NSaved=20 IEnMin=20 EnMin= -3159.62579289217     IErMin=20 ErrMin= 8.70D-08
 ErrMax= 8.70D-08  0.00D+00 EMaxC= 1.00D-01 BMatC= 8.95D-12 BMatP= 1.17D-11
 IDIUse=1 WtCom= 1.00D+00 WtEn= 0.00D+00
 Coeff-Com:  0.924D-03 0.401D-02 0.271D-02-0.680D-02-0.615D-02 0.441D-02
 Coeff-Com:  0.904D-02 0.554D-02-0.199D-01-0.416D-01-0.125D-01 0.829D-01
 Coeff-Com:  0.224D+00 0.312D+00-0.231D+00-0.853D+00-0.375D+00 0.572D-01
 Coeff-Com:  0.117D+01 0.676D+00
 Coeff:      0.924D-03 0.401D-02 0.271D-02-0.680D-02-0.615D-02 0.441D-02
 Coeff:      0.904D-02 0.554D-02-0.199D-01-0.416D-01-0.125D-01 0.829D-01
 Coeff:      0.224D+00 0.312D+00-0.231D+00-0.853D+00-0.375D+00 0.572D-01
 Coeff:      0.117D+01 0.676D+00
 Gap=     0.105 Goal=   None    Shift=    0.000
 Gap=     0.077 Goal=   None    Shift=    0.000
 RMSDP=9.18D-08 MaxDP=2.19D-05 DE=-7.64D-11 OVMax= 5.07D-05

 Cycle  35  Pass 1  IDiag  1:
 RMSU=  5.26D-08    CP:  1.00D+00  1.82D+00  3.00D+00  3.00D+00  3.00D+00
                    CP:  3.00D+00  3.00D+00  3.00D+00  3.00D+00  3.00D+00
                    CP:  3.00D+00  3.00D+00  3.00D+00  2.04D+00
 E= -3159.62579289229     Delta-E=       -0.000000000120 Rises=F Damp=F
 DIIS: error= 5.73D-08 at cycle  35 NSaved=  20.
 NSaved=20 IEnMin=20 EnMin= -3159.62579289229     IErMin=20 ErrMin= 5.73D-08
 ErrMax= 5.73D-08  0.00D+00 EMaxC= 1.00D-01 BMatC= 5.52D-12 BMatP= 8.95D-12
 IDIUse=1 WtCom= 1.00D+00 WtEn= 0.00D+00
 Coeff-Com:  0.360D-02 0.422D-02-0.568D-02-0.995D-02 0.132D-02 0.112D-01
 Coeff-Com:  0.134D-01-0.189D-02-0.374D-01-0.358D-01 0.697D-02 0.124D+00
 Coeff-Com:  0.255D+00 0.497D-01-0.454D+00-0.358D+00-0.233D+00 0.348D+00
 Coeff-Com:  0.595D+00 0.723D+00
 Coeff:      0.360D-02 0.422D-02-0.568D-02-0.995D-02 0.132D-02 0.112D-01
 Coeff:      0.134D-01-0.189D-02-0.374D-01-0.358D-01 0.697D-02 0.124D+00
 Coeff:      0.255D+00 0.497D-01-0.454D+00-0.358D+00-0.233D+00 0.348D+00
 Coeff:      0.595D+00 0.723D+00
 Gap=     0.105 Goal=   None    Shift=    0.000
 Gap=     0.077 Goal=   None    Shift=    0.000
 RMSDP=6.77D-08 MaxDP=1.67D-05 DE=-1.20D-10 OVMax= 3.75D-05

 Cycle  36  Pass 1  IDiag  1:
 RMSU=  7.81D-09    CP:  1.00D+00  1.82D+00  3.00D+00  3.00D+00  3.00D+00
                    CP:  3.00D+00  3.00D+00  3.00D+00  3.00D+00  3.00D+00
                    CP:  3.00D+00  3.00D+00  3.00D+00  2.81D+00  1.79D+00
 E= -3159.62579289237     Delta-E=       -0.000000000085 Rises=F Damp=F
 DIIS: error= 3.07D-08 at cycle  36 NSaved=  20.
 NSaved=20 IEnMin=20 EnMin= -3159.62579289237     IErMin=20 ErrMin= 3.07D-08
 ErrMax= 3.07D-08  0.00D+00 EMaxC= 1.00D-01 BMatC= 2.64D-12 BMatP= 5.52D-12
 IDIUse=1 WtCom= 1.00D+00 WtEn= 0.00D+00
 Coeff-Com: -0.186D-02-0.168D-02 0.122D-02 0.227D-02 0.554D-03-0.231D-02
 Coeff-Com:  0.164D-02 0.107D-01 0.357D-02-0.220D-01-0.795D-01-0.834D-01
 Coeff-Com:  0.179D+00 0.288D+00 0.212D-02-0.250D+00-0.594D+00 0.114D+00
 Coeff-Com:  0.629D+00 0.802D+00
 Coeff:     -0.186D-02-0.168D-02 0.122D-02 0.227D-02 0.554D-03-0.231D-02
 Coeff:      0.164D-02 0.107D-01 0.357D-02-0.220D-01-0.795D-01-0.834D-01
 Coeff:      0.179D+00 0.288D+00 0.212D-02-0.250D+00-0.594D+00 0.114D+00
 Coeff:      0.629D+00 0.802D+00
 Gap=     0.105 Goal=   None    Shift=    0.000
 Gap=     0.077 Goal=   None    Shift=    0.000
 RMSDP=5.27D-08 MaxDP=1.35D-05 DE=-8.55D-11 OVMax= 2.92D-05

 Cycle  37  Pass 1  IDiag  1:
 RMSU=  2.85D-08    CP:  1.00D+00  1.82D+00  3.00D+00  3.00D+00  3.00D+00
                    CP:  3.00D+00  3.00D+00  3.00D+00  3.00D+00  3.00D+00
                    CP:  3.00D+00  3.00D+00  3.00D+00  3.00D+00  2.39D+00
                    CP:  1.61D+00
 E= -3159.62579289233     Delta-E=        0.000000000044 Rises=F Damp=F
 DIIS: error= 1.33D-08 at cycle  37 NSaved=  20.
 NSaved=20 IEnMin=19 EnMin= -3159.62579289237     IErMin=20 ErrMin= 1.33D-08
 ErrMax= 1.33D-08  0.00D+00 EMaxC= 1.00D-01 BMatC= 9.45D-13 BMatP= 2.64D-12
 IDIUse=1 WtCom= 1.00D+00 WtEn= 0.00D+00
 Coeff-Com: -0.107D-02 0.268D-04 0.119D-02-0.634D-03-0.346D-02 0.133D-02
 Coeff-Com:  0.149D-01 0.109D-01-0.157D-01-0.940D-01-0.113D+00 0.138D+00
 Coeff-Com:  0.279D+00 0.660D-01-0.124D+00-0.441D+00-0.679D-01 0.269D+00
 Coeff-Com:  0.501D+00 0.580D+00
 Coeff:     -0.107D-02 0.268D-04 0.119D-02-0.634D-03-0.346D-02 0.133D-02
 Coeff:      0.149D-01 0.109D-01-0.157D-01-0.940D-01-0.113D+00 0.138D+00
 Coeff:      0.279D+00 0.660D-01-0.124D+00-0.441D+00-0.679D-01 0.269D+00
 Coeff:      0.501D+00 0.580D+00
 Gap=     0.105 Goal=   None    Shift=    0.000
 Gap=     0.077 Goal=   None    Shift=    0.000
 RMSDP=1.47D-08 MaxDP=2.80D-06 DE= 4.37D-11 OVMax= 7.98D-06

 Cycle  38  Pass 1  IDiag  1:
 RMSU=  2.14D-09    CP:  1.00D+00  1.82D+00  3.00D+00  3.00D+00  3.00D+00
                    CP:  3.00D+00  3.00D+00  3.00D+00  3.00D+00  3.00D+00
                    CP:  3.00D+00  3.00D+00  3.00D+00  3.00D+00  2.55D+00
                    CP:  1.81D+00  1.39D+00
 E= -3159.62579289236     Delta-E=       -0.000000000026 Rises=F Damp=F
 DIIS: error= 8.38D-09 at cycle  38 NSaved=  20.
 NSaved=20 IEnMin=18 EnMin= -3159.62579289237     IErMin=20 ErrMin= 8.38D-09
 ErrMax= 8.38D-09  0.00D+00 EMaxC= 1.00D-01 BMatC= 2.52D-13 BMatP= 9.45D-13
 IDIUse=1 WtCom= 1.00D+00 WtEn= 0.00D+00
 Coeff-Com:  0.507D-03 0.580D-03-0.390D-03-0.214D-02-0.477D-02-0.751D-03
 Coeff-Com:  0.915D-02 0.223D-01 0.648D-03-0.392D-01-0.398D-01 0.514D-01
 Coeff-Com:  0.477D-01 0.341D-01-0.348D-01-0.100D+00-0.891D-01 0.962D-02
 Coeff-Com:  0.339D+00 0.796D+00
 Coeff:      0.507D-03 0.580D-03-0.390D-03-0.214D-02-0.477D-02-0.751D-03
 Coeff:      0.915D-02 0.223D-01 0.648D-03-0.392D-01-0.398D-01 0.514D-01
 Coeff:      0.477D-01 0.341D-01-0.348D-01-0.100D+00-0.891D-01 0.962D-02
 Coeff:      0.339D+00 0.796D+00
 Gap=     0.105 Goal=   None    Shift=    0.000
 Gap=     0.077 Goal=   None    Shift=    0.000
 RMSDP=7.38D-09 MaxDP=1.95D-06 DE=-2.64D-11 OVMax= 4.06D-06

 Cycle  39  Pass 1  IDiag  1:
 RMSU=  1.11D-09    CP:  1.00D+00  1.82D+00  3.00D+00  3.00D+00  3.00D+00
                    CP:  3.00D+00  3.00D+00  3.00D+00  3.00D+00  3.00D+00
                    CP:  3.00D+00  3.00D+00  3.00D+00  3.00D+00  2.64D+00
                    CP:  1.97D+00  1.59D+00  9.44D-01
 E= -3159.62579289235     Delta-E=        0.000000000006 Rises=F Damp=F
 DIIS: error= 5.38D-09 at cycle  39 NSaved=  20.
 NSaved=20 IEnMin=17 EnMin= -3159.62579289237     IErMin=20 ErrMin= 5.38D-09
 ErrMax= 5.38D-09  0.00D+00 EMaxC= 1.00D-01 BMatC= 9.82D-14 BMatP= 2.52D-13
 IDIUse=1 WtCom= 1.00D+00 WtEn= 0.00D+00
 Coeff-Com:  0.475D-03 0.276D-03-0.373D-03-0.299D-02-0.323D-02 0.305D-02
 Coeff-Com:  0.152D-01 0.209D-01 0.594D-02-0.654D-01-0.513D-01 0.144D-01
 Coeff-Com:  0.698D-01 0.132D+00-0.490D-01-0.161D+00-0.172D+00 0.709D-01
 Coeff-Com:  0.519D+00 0.653D+00
 Coeff:      0.475D-03 0.276D-03-0.373D-03-0.299D-02-0.323D-02 0.305D-02
 Coeff:      0.152D-01 0.209D-01 0.594D-02-0.654D-01-0.513D-01 0.144D-01
 Coeff:      0.698D-01 0.132D+00-0.490D-01-0.161D+00-0.172D+00 0.709D-01
 Coeff:      0.519D+00 0.653D+00
 Gap=     0.105 Goal=   None    Shift=    0.000
 Gap=     0.077 Goal=   None    Shift=    0.000
 RMSDP=2.15D-09 MaxDP=5.48D-07 DE= 6.37D-12 OVMax= 1.15D-06

 SCF Done:  E(UB3LYP) =  -3159.62579289     A.U. after   39 cycles
            NFock= 39  Conv=0.21D-08     -V/T= 2.0049
 <Sx>= 0.0000 <Sy>= 0.0000 <Sz>= 2.0000 <S**2>= 6.0433 S= 2.0087
 <L.S>=  0.00000000000    
 KE= 3.144126483155D+03 PE=-1.489919050221D+04 EE= 4.872052155779D+03
 Annihilation of the first spin contaminant:
 S**2 before annihilation     6.0433,   after     6.0002
 Leave Link  502 at Sat Dec 24 02:08:23 2022, MaxMem=  1342177280 cpu:            7029.2 elap:            1046.6
 (Enter /aplic/Gaussian/g16b01_iqtc08/g16/l508.exe)
 QCSCF skips out because SCF is already converged.
 Leave Link  508 at Sat Dec 24 02:08:24 2022, MaxMem=  1342177280 cpu:               0.0 elap:               0.0
 (Enter /aplic/Gaussian/g16b01_iqtc08/g16/l801.exe)
 DoSCS=F DFT=T ScalE2(SS,OS)=  1.000000  1.000000
 Range of M.O.s used for correlation:     1   521
 NBasis=   521 NAE=   121 NBE=   117 NFC=     0 NFV=     0
 NROrb=    521 NOA=   121 NOB=   117 NVA=   400 NVB=   404

 **** Warning!!: The smallest beta delta epsilon is  0.77297148D-01

 Leave Link  801 at Sat Dec 24 02:08:27 2022, MaxMem=  1342177280 cpu:               3.0 elap:               3.1
 (Enter /aplic/Gaussian/g16b01_iqtc08/g16/l1101.exe)
 Using compressed storage, NAtomX=    47.
 Will process     48 centers per pass.
   1 Symmetry operations used in ECPInt.
 ECPInt:  NShTT=   28203 NPrTT=  109756 LenC2=   25564 LenP2D=   65989.
 LDataN:  DoStor=T MaxTD1= 7 Len=  274
 R6Disp: Adding Grimme-D3(BJ) dispersion energy 1st derivatives to the gradient.
[...]
 863,0.00028828,-0.00089877,-0.00023282,-0.00024490,0.00005515,0.664224
 20,-0.00225626,-0.00080294,0.00175134,0.00051158,-0.00006947,0.0000029
 1,-0.00005701,-0.00002622,-0.00001658,-0.00036644,0.00005764,-0.000263
 75,0.01556141,0.05380159,-0.02964788,0.00034190,0.00019053,0.00054668,
 -0.00011074,-0.00020844,-0.00040715,0.00115172,0.00037669,-0.00003698,
 -0.00008876,-0.00000043,-0.00013004,-0.00007079,-0.00004497,0.00018904
 ,-0.00005917,0.00004773,0.00001735,0.00016161,0.00008953,-0.00015983,-
 0.00000989,0.00001023,0.00000747,-0.00005312,-0.00020683,0.00004240,-0
 .00000561,0.00000465,-0.00000203,-0.00003042,0.00020421,0.00011522,0.0
 0001004,-0.00000195,-0.00000723,0.00015712,-0.00020845,-0.00007969,0.0
 0000256,0.00000790,-0.00019962,-0.00001676,0.00003591,0.00003626,0.000
 04090,0.00002745,0.00000464,0.06867349,-0.15805955,0.03884010,0.021661
 71,-0.00267973,-0.00148988,-0.05607648,-0.01137399,0.03304731,-0.00017
 057,0.00320217,0.00311215,0.02561838,-0.04334227,0.01249268,0.00073528
 ,0.00066344,0.00079268,-0.00075046,0.00016704,-0.00008595,0.00003019,0
 .00036217,0.00001361,0.00024700,-0.00032550,-0.00011844,-0.00000764,-0
 .00002805,-0.00005898,-0.00006031,0.00025725,-0.00009507,-0.00002469,-
 0.00001294,-0.00002030,0.00000567,-0.00003504,0.00011812,0.00001532,0.
 00001166,-0.00000663,-0.00018419,0.00004298,-0.00015601,0.00003834,0.0
 0004213,0.00003395,-0.00034632,-0.00027109,0.00005573,0.00004657,0.000
 15616,0.00012074,0.00003733,0.00002484,-0.00004553,0.00001221,-0.00005
 475,-0.00009879,-0.00019721,0.00005349,0.00001935,0.00005712,0.0000430
 7,-0.00000380,-0.05565524,0.53051098,-0.00072675,0.00139872,-0.0009795
 2,-0.00036128,0.00002933,0.00011061,0.00003886,0.00005577,0.00001204,-
 0.00023535,0.00000647,0.00026987,0.02048323,-0.01188342,0.02285350,0.0
 0025449,0.00042798,0.00031842,0.00012453,0.00039808,0.00008598,-0.0008
 4035,-0.00034131,-0.00002980,0.00023352,-0.00005190,0.00004802,0.00009
 390,-0.00004721,-0.00020775,0.00001791,-0.00004848,-0.00003280,-0.0000
 4204,-0.00006442,0.00010969,0.00000669,-0.00000935,-0.00000709,0.00003
 735,0.00005674,-0.00006736,-0.00000055,-0.00000512,0.00000167,-0.00000
 551,-0.00008577,0.00000213,-0.00000781,0.00000252,0.00000478,0.0000024
 7,0.00019961,-0.00005338,-0.00008496,0.00000750,0.00018062,0.00001258,
 -0.00002851,-0.00002303,-0.00000351,-0.00001349,-0.00002681,0.03123947
 ,0.01767506,-0.09556443,-0.01290741,0.00733089,0.00779890,0.02475689,0
 .02170253,-0.01640576,0.00408303,0.00334390,0.00374168,-0.01159009,0.0
 1009634,-0.01138998,-0.00029787,-0.00080563,-0.00101191,0.00051483,0.0
 0013904,-0.00009713,-0.00005653,-0.00012402,0.00001436,0.00006038,0.00
 019685,-0.00011714,0.00008100,-0.00005077,0.00010046,-0.00022369,-0.00
 017767,0.00007766,0.00002095,0.00002006,0.00005009,0.00005336,0.000181
 61,-0.00014721,0.00001199,0.00000185,0.00002202,-0.00004264,0.00006439
 ,0.00019415,-0.00001075,-0.00000881,-0.00000485,0.00021260,-0.00019888
 ,-0.00004059,-0.00003806,-0.00019853,-0.00016243,-0.00003481,0.0000278
 4,0.00002441,-0.00000183,0.00004260,0.00006548,0.00012580,-0.00013175,
 0.00001215,-0.00004678,-0.00007195,0.00001316,-0.15759791,-0.25417689,
 0.36570337,0.00048197,-0.00025117,0.00040271,0.00041135,-0.00003922,-0
 .00014359,-0.00000719,-0.00000929,-0.00000164,-0.00005699,0.00003364,0
 .00000894,-0.00467457,0.00370013,0.00156988,-0.00002828,-0.00000834,-0
 .00005415,-0.00004004,-0.00005943,0.00006276,0.00028541,0.00037477,-0.
 00048171,-0.00004462,0.00000582,-0.00003300,-0.00000575,-0.00004195,0.
 00002041,-0.00000068,0.00000424,0.00000634,0.00000476,0.00000926,-0.00
 000546,-0.00000272,0.00000268,0.00000356,-0.00000268,-0.00000135,0.000
 00684,-0.00000070,0.00000091,-0.00000007,0.00000600,0.00000496,0.00000
 804,0.00000029,0.00000010,0.00000208,0.00000271,0.00000542,-0.00000886
 ,0.00000996,0.00000124,-0.00003550,-0.00000152,0.00000430,0.00000853,-
 0.00000223,-0.00000205,0.00001009,-0.01273867,-0.01396451,0.01509633,0
 .00029011,-0.00071980,-0.00084259,0.00167635,0.00233302,0.00064048,0.0
 0029135,0.00031407,-0.00020748,-0.00003406,0.00142858,-0.00102971,-0.0
 0012026,-0.00039423,-0.00033927,0.00010033,0.00000995,-0.00006195,-0.0
 0004231,-0.00006776,0.00005592,0.00000810,-0.00007177,0.00005365,-0.00
 002401,0.00001424,-0.00000088,0.00002345,0.00006597,0.00001126,-0.0000
 1044,-0.00001423,-0.00002574,-0.00000192,-0.00005805,0.00002901,-0.000
 00324,-0.00000098,-0.00000160,0.00003496,-0.00001382,-0.00004326,0.000
 00301,0.00000016,-0.00000215,-0.00001807,0.00006211,0.00002653,0.00001
 469,0.00003992,0.00003489,0.00000007,-0.00001297,-0.00000650,-0.000001
 99,-0.00000519,-0.00000669,-0.00045415,-0.00019859,0.00052634,0.000006
 04,0.00001137,-0.00000217,-0.20775318,-0.08007890,0.11913267,0.2142802
 7,-0.00020274,0.00018949,-0.00015282,-0.00020703,-0.00003311,0.0000208
 7,-0.00000605,-0.00001323,-0.00000010,0.00001626,-0.00001772,-0.000024
 51,0.00499740,0.00198298,0.00232433,-0.00000106,-0.00003570,0.00003149
 ,-0.00006197,0.00007151,-0.00000395,-0.00012236,-0.00011630,0.00016952
 ,-0.00001971,-0.00002066,0.00000526,0.00000342,0.00002227,0.00000025,-
 0.00000007,0.00000044,-0.00000210,0.00000107,-0.00000375,-0.00000002,0
 .00000106,-0.00000086,-0.00000212,-0.00000126,-0.00000277,0.00000007,-
 0.00000014,-0.00000022,0.00000009,0.00000055,0.00000336,0.00000227,0.0
 0000123,-0.00000078,0.00000036,-0.00000229,-0.00000784,0.00000832,-0.0
 0003120,0.00002655,-0.00003699,-0.00000445,0.00000407,0.00000613,0.000
 01627,-0.00000490,-0.00000160,0.00986638,0.00902152,-0.00879202,-0.000
 77282,-0.00073207,-0.00151151,0.00283257,-0.00138441,0.00509934,-0.000
 90640,-0.00018716,0.00066119,0.00064498,-0.00110500,0.00028345,-0.0002
 2178,-0.00036209,-0.00066955,0.00010050,0.00000116,-0.00005239,0.00006
 056,0.00001164,-0.00002043,0.00001503,0.00002129,-0.00000257,-0.000003
 51,0.00002232,0.00000167,0.00002166,0.00002991,0.00001534,-0.00001855,
 0.00000152,-0.00002125,-0.00000451,-0.00003341,0.00003688,-0.00000661,
 -0.00000789,-0.00000261,0.00001750,-0.00002947,-0.00003568,0.00000372,
 0.00000401,0.00000182,-0.00002327,0.00001838,0.00003029,0.00002087,-0.
 00000120,0.00000892,0.00000408,0.00000577,-0.00000454,-0.00000406,0.00
 000346,-0.00000772,0.00014407,0.00009896,-0.00020446,0.00001379,0.0000
 1652,-0.00000229,-0.08058989,-0.09698922,0.07115219,0.08480105,0.09475
 772,-0.00003888,0.00004068,0.00000326,0.00017146,-0.00006233,-0.000062
 74,0.00001650,0.00000632,-0.00000336,0.00000318,-0.00000911,-0.0000101
 6,0.00097225,0.00287942,0.00526269,0.00000010,-0.00001446,0.00003789,0
 .00001314,0.00000555,0.00005235,0.00007189,0.00011542,-0.00015392,0.00
 001705,0.00000688,-0.00000006,0.00000379,0.00000837,0.00000066,0.00000
 125,0.00000434,0.00000828,-0.00000193,-0.00000082,0.00000057,0.0000011
 7,-0.00000213,-0.00000115,0.00000072,0.00000024,-0.00000392,0.00000112
 ,-0.00000051,-0.00000126,0.00000344,-0.00000236,0.00000280,0.00000113,
 0.00000069,0.00000157,-0.00000300,0.00000380,0.00000898,-0.00003660,0.
 00004610,-0.00001902,0.00000002,0.00000064,0.00000387,0.00001428,-0.00
 000518,-0.00000334,-0.00178286,-0.00002044,0.00221129,-0.00070861,-0.0
 0169956,-0.00180271,0.00033663,0.00523326,0.00390779,0.00058656,0.0001
 8281,-0.00004788,-0.00060631,0.00005896,-0.00021224,-0.00029968,-0.000
 66987,-0.00084850,0.00015514,-0.00003904,-0.00009005,-0.00001411,-0.00
 008041,0.00006674,0.00000389,-0.00001258,-0.00001666,-0.00000543,0.000
 00787,0.00000496,0.00000543,0.00003695,0.00000672,-0.00001244,-0.00000
 638,-0.00001399,-0.00000192,-0.00003225,0.00002542,-0.00000279,-0.0000
 0128,-0.00000009,0.00002213,-0.00002310,-0.00002831,0.00000179,-0.0000
 0071,-0.00000189,-0.00000994,0.00002656,0.00002366,0.00001949,0.000007
 70,-0.00002224,-0.00000263,0.00000029,0.00000040,-0.00000441,0.0000019
 9,-0.00000042,-0.00017638,-0.00008239,0.00021724,-0.00002035,-0.000015
 31,0.00000431,0.11973204,0.07120060,-0.13094076,-0.12912717,-0.0791152
 5,0.12857921,-0.00161728,0.00081311,-0.00068894,0.00021356,0.00009164,
 -0.00030830,-0.00015571,-0.00030144,0.00011135,0.00051809,-0.00010020,
 -0.00015494,-0.00482315,-0.02352633,0.01576759,0.00020452,-0.00001544,
 -0.00019907,-0.00033994,-0.00020140,0.00106081,0.00017491,0.00045160,-
 0.00051124,-0.00043421,-0.00027665,-0.00001368,-0.00003664,-0.00002571
 ,0.00005477,0.00002729,-0.00000519,-0.00001220,-0.00008266,-0.00001726
 ,0.00002795,-0.00000866,0.00000927,0.00000992,-0.00001098,0.00013220,0
 .00006818,-0.00000054,-0.00000226,-0.00000011,0.00002950,-0.00014080,-
 0.00007034,-0.00002186,0.00000020,0.00001917,-0.00005722,0.00016200,0.
 00008804,-0.00027677,-0.00000062,0.00000749,-0.00004239,-0.00001119,-0
 .00003391,-0.00001521,-0.00002991,-0.00000711,0.01806267,0.02958548,-0
 .02470658,-0.00408569,0.00272388,0.00221283,-0.25078844,-0.07498064,0.
 12231729,0.00697664,0.00297636,-0.00358621,-0.05207740,0.01851971,0.01
 091363,-0.00177252,0.00279839,-0.00118144,-0.00000673,-0.00003396,0.00
 056523,0.00001335,-0.00038671,-0.00008053,-0.00020757,0.00006604,0.000
 06396,-0.00000099,0.00005650,0.00002494,-0.00003598,-0.00013245,-0.000
 06963,0.00002057,-0.00001619,0.00000756,0.00012120,-0.00001496,-0.0001
 6227,0.00000034,0.00000619,0.00000923,0.00009225,-0.00007128,0.0001853
 6,-0.00003015,-0.00004936,-0.00003454,0.00006531,0.00006386,-0.0000528
 9,0.00007163,0.00004953,0.00010191,-0.00005151,-0.00011653,0.00002271,
 -0.00007548,0.00002693,0.00003418,-0.00048911,-0.00022955,0.00061626,0
 .00035517,0.00039452,-0.00009952,-0.12768891,0.06159504,-0.01813750,0.
 00797955,-0.01970184,0.01187256,0.68419122,0.00141262,0.00015755,-0.00
 077549,-0.00050680,0.00001953,0.00024638,0.00010515,0.00013650,-0.0000
 0707,0.00008753,0.00007164,0.00046718,-0.02344505,-0.03896337,0.029224
 47,0.00016463,0.00028530,-0.00022236,0.00099146,0.00036960,-0.00060267
 ,-0.00056474,-0.00058516,0.00061994,0.00025777,0.00010896,0.00002669,0
 .00006483,-0.00008812,-0.00018585,0.00003618,-0.00002094,0.00000586,-0
 .00013533,-0.00004203,0.00015052,0.00000854,-0.00001034,-0.00000423,0.
 00006950,0.00013381,-0.00009406,0.00000728,-0.00000182,0.00000149,-0.0
 0000617,-0.00013467,-0.00007451,-0.00000020,0.00000504,-0.00000010,-0.
 00009017,0.00016484,-0.00002427,0.00031986,0.00005823,0.00039626,0.000
 09495,-0.00005519,-0.00009289,-0.00003844,0.00001279,-0.00002603,0.065
 63449,-0.01941434,-0.00562398,0.00286419,0.00221853,0.00244775,-0.0261
 8924,-0.13748186,0.06086371,-0.02066495,-0.00448976,0.01285519,-0.0199
 7506,0.05092760,-0.02271017,0.00319650,-0.00060084,0.00374318,-0.00053
 286,-0.00030722,0.00048062,-0.00011284,0.00013767,-0.00019903,-0.00018
 419,0.00016281,0.00000301,0.00006834,-0.00008411,0.00005079,-0.0001620
 7,-0.00026784,-0.00003283,0.00004947,0.00002348,0.00006565,0.00004462,
 0.00021903,-0.00014739,0.00000452,-0.00000248,0.00001349,0.00008478,-0
 .00001205,0.00020295,-0.00003016,-0.00000560,-0.00001147,0.00031162,0.
 00006979,0.00015151,-0.00000969,-0.00031632,-0.00021851,-0.00002012,0.
 00005548,0.00001909,0.00001762,0.00006677,0.00008276,0.00073432,0.0002
 6388,-0.00077321,-0.00016425,-0.00016871,0.00002961,0.01265945,-0.2699
 0952,0.13515994,0.00385388,-0.00492074,0.00422521,-0.11916454,0.537620
 01,-0.00032698,-0.00033402,0.00072584,0.00032059,-0.00003401,-0.000094
 93,-0.00003749,-0.00001100,-0.00001714,-0.00016185,-0.00005221,-0.0003
 2278,0.01442595,0.02910359,-0.03505864,0.00003174,-0.00039799,0.000279
 55,0.00084526,-0.00034234,-0.00086423,0.00038489,0.00026472,-0.0002779
 1,-0.00008234,0.00000008,-0.00002127,-0.00004432,0.00008366,0.00013653
 ,-0.00002924,0.00001669,-0.00000021,0.00011660,0.00003220,-0.00011399,
 -0.00000506,0.00000660,-0.00000004,-0.00005279,-0.00011961,0.00005171,
 -0.00000508,0.00000171,-0.00000049,-0.00000026,0.00010887,0.00004087,0
 .00000807,-0.00000341,-0.00000445,0.00008227,-0.00015875,0.00001147,0.
 00005496,0.00008716,-0.00003839,0.00001612,0.00000745,-0.00003765,0.00
 006000,0.00002010,-0.00002465,-0.04888131,0.00838872,0.02222528,0.0018
 4544,0.00250728,0.00403902,0.08784821,0.07876970,-0.15135759,0.0128036
 4,0.00426472,-0.00438040,0.03690693,-0.03678774,0.01872560,0.00056176,
 0.00394300,0.00614818,-0.00131462,-0.00000343,0.00021483,-0.00015947,0
 .00037885,-0.00020584,0.00015776,-0.00012889,-0.00003887,-0.00002755,0
 .00003203,-0.00003685,0.00014422,0.00017428,0.00005925,-0.00002623,-0.
 00000815,-0.00002651,-0.00009994,-0.00008463,0.00021535,0.00000076,0.0
 0000531,-0.00000695,-0.00007453,0.00003953,-0.00023881,0.00005334,0.00
 003620,0.00002403,-0.00028080,-0.00007731,-0.00019299,-0.00002890,0.00
 004014,-0.00005191,0.00005297,0.00004184,-0.00001274,0.00001675,-0.000
 02836,-0.00005074,-0.00031076,-0.00013039,0.00035912,0.00001423,0.0000
 0555,-0.00000126,0.01556362,0.11671720,-0.15017459,-0.00437252,0.01317
 392,-0.00398355,-0.12331729,-0.22488451,0.34162227,0.00017501,-0.00011
 383,0.00006217,-0.00000633,0.00001017,-0.00002479,-0.00001531,-0.00000
 595,-0.00001192,-0.00000275,0.00001880,0.00000719,-0.00009710,-0.00095
 567,-0.00067846,-0.00002814,-0.00001805,-0.00005932,-0.00029536,0.0000
 3144,0.00014435,-0.00000736,0.00002366,-0.00004049,-0.00002780,0.00000
 046,-0.00001211,-0.00000174,-0.00000406,0.00000471,0.00000099,0.000000
 28,-0.00000045,0.00000317,0.00000523,-0.00000264,0.,0.00000146,0.00000
 003,0.00000053,-0.00000929,0.00000028,-0.00000084,0.00000201,0.0000016
 9,-0.00000112,0.00002217,0.00000252,0.00000195,-0.00000218,-0.00000294
 ,0.00000258,-0.00004633,-0.00001852,-0.00004865,-0.00006852,-0.0001199
 0,-0.00002238,0.00002392,0.00003665,0.00000588,0.00000426,0.00000909,0
 .00233087,0.00144043,0.00133565,-0.00008969,-0.00021014,0.00001299,-0.
 01435442,0.01258788,-0.00112325,0.00058278,-0.00077993,-0.00121704,-0.
 00080123,-0.00158635,0.00464246,-0.00025294,0.00065060,-0.00056695,-0.
 00005263,-0.00002156,0.00007570,0.00000998,-0.00002340,-0.00002752,-0.
 00000475,0.00000721,0.00002250,-0.00000102,0.00000307,-0.00000020,0.00
 002734,0.00000687,-0.00000863,-0.00000606,0.00000270,-0.00000958,0.000
 00831,-0.00001325,0.00000973,-0.00000836,-0.00000961,-0.00001423,0.000
 02944,-0.00000866,-0.00001635,-0.00001453,-0.00000340,0.00000410,-0.00
 001360,0.00002929,0.00005832,-0.00000754,0.00009400,0.00007279,0.00000
 503,-0.00001277,-0.00000252,0.00000040,-0.00001546,-0.00001820,-0.0000
 1403,-0.00001581,0.00003331,0.00001193,0.00001131,0.00000198,0.0011855
 4,-0.00003553,0.00169549,0.00015955,-0.00067042,-0.00117271,-0.2738840
 8,0.11885278,0.00732324,0.28551845,-0.00010036,-0.00010656,-0.00003003
 ,0.00002463,-0.00001021,0.00001530,0.00000630,-0.00000033,-0.00000517,
 0.00006496,-0.00000732,-0.00001425,-0.00093778,-0.00129857,-0.00102025
 ,-0.00001307,-0.00003543,-0.00004229,-0.00007825,-0.00001255,0.0000927
 0,0.00007196,-0.00000377,0.00005775,0.00000823,0.00001487,-0.00000110,
 -0.00000721,0.00000426,0.00001254,-0.00000153,0.00000667,0.00000750,-0
 .00000553,0.00000530,-0.00000586,0.00000072,-0.00000077,0.00000062,0.0
 0000041,0.00000183,0.00000089,0.00000174,0.00000029,-0.00000072,-0.000
 00057,0.00000012,-0.00000715,0.00000106,0.00000054,-0.00000040,-0.0000
 0991,-0.00001577,0.00000517,-0.00005004,0.00000198,-0.00003167,-0.0000
 0959,0.00000974,0.00001029,0.00000254,-0.00000008,-0.00000329,0.000699
 89,-0.00163142,0.00652245,0.00095516,-0.00031392,-0.00047909,-0.010853
 89,0.00969482,0.00107481,-0.00041368,-0.00064209,-0.00212656,-0.001290
 50,0.00219301,0.00466762,-0.00048697,0.00018478,-0.00031059,0.00007129
 ,-0.00000111,0.00002833,0.00001520,-0.00002767,-0.00001237,-0.00000618
 ,-0.00001556,0.00001394,-0.00000806,-0.00000143,-0.00001225,0.00001592
 ,0.00000488,-0.00001369,0.00000109,-0.00000125,0.00000036,0.00000021,-
 0.00000449,0.00000299,-0.00000256,0.00000038,-0.00000625,0.00001751,-0
 .00000284,-0.00000542,-0.00000835,-0.00000414,-0.00000016,0.00000310,0
 .00001718,0.00001311,-0.00000994,0.00003275,0.00003009,-0.00000107,-0.
 00000598,0.00000037,-0.00000407,-0.00000521,-0.00000540,0.00003248,0.0
 0002991,-0.00005342,-0.00000893,-0.00000585,0.00000398,0.02355162,-0.0
 0574007,-0.00119393,-0.00106816,-0.00030432,-0.00220516,0.11902998,-0.
 11540581,0.00533567,-0.12919981,0.11340121,0.00011475,0.00002424,-0.00
 011792,-0.00000918,0.00000797,-0.00003361,-0.00000252,-0.00001898,0.00
 000319,0.00005326,-0.00003285,-0.00003644,-0.00070907,-0.00119190,-0.0
 0229907,-0.00006318,-0.00007006,-0.00006513,0.00029355,-0.00006014,-0.
 00007220,-0.00001717,0.00002191,-0.00003506,-0.00002052,-0.00001083,0.
 00001493,-0.00000188,0.00002450,0.00000788,0.00000210,-0.00000120,0.00
 000135,-0.00000342,-0.00000657,-0.00000666,0.00000096,-0.00000102,-0.0
 0000012,-0.00000346,0.00000730,0.00000713,0.00000151,-0.00000181,-0.00
 000064,0.00000084,-0.00001653,-0.00000845,0.00000032,0.00000115,0.0000
 0300,-0.00001411,0.00002515,0.00002876,0.00002492,0.00006333,0.0000524
 8,0.00001980,-0.00000720,-0.00001693,-0.00000096,-0.00000171,-0.000007
 57,0.00162989,0.00623559,0.00343696,-0.00074205,-0.00004789,-0.0001910
 7,0.01497784,-0.00784893,0.00480430,-0.00149554,-0.00200772,-0.0020857
 1,0.00402447,0.00502762,0.00318138,0.00018086,-0.00065956,0.00006796,0
 .00011994,0.00000986,-0.00005778,0.00000427,0.00000901,0.00001520,0.00
 000456,0.00001787,0.00002133,-0.00000824,0.00000826,0.00000119,0.00002
 609,0.00000051,0.00001195,-0.00001058,0.00000115,-0.00001353,0.0000041
 5,-0.00001187,0.00000126,-0.00000971,-0.00000876,-0.00000417,0.0000188
 7,-0.00002539,0.00001068,-0.00000072,-0.00000314,-0.00000136,0.0000129
 7,0.00003717,-0.00003068,0.00000073,-0.00001943,0.00000602,-0.00000183
 ,0.00000261,-0.00000027,-0.00000611,0.00000414,0.00000031,-0.00002192,
 -0.00002130,0.00004973,0.00000981,0.00001600,0.00000080,-0.01435775,0.
 00802950,0.00566911,-0.00088362,-0.00236746,-0.00216246,0.00726529,0.0
 0517739,-0.04724252,-0.01040824,-0.01030999,0.03709246\\-0.00000106,-0
 .00000043,-0.00000056,-0.00000659,-0.00000525,0.00000931,-0.00000137,-
 0.00000039,0.00000173,0.00000080,-0.00000111,0.00000047,0.00000073,0.0
 0000006,-0.00000012,-0.00000037,-0.00000047,0.00000138,-0.00000029,-0.
 00000029,0.00000038,0.00003761,0.00002677,-0.00005114,-0.00000108,-0.0
 0000025,0.00000112,0.00000121,0.00000064,-0.00000038,0.00000023,-0.000
 00020,0.00000044,0.00000048,-0.00000007,0.00000113,0.00000065,0.000000
 50,0.00000016,0.00000124,0.00000026,0.00000028,0.00000056,0.00000029,0
 .00000028,0.00000083,-0.00000075,0.00000032,0.00000051,0.00000011,0.00
 000007,0.00000027,-0.00000093,0.00000048,-0.00000013,-0.00000011,0.000
 00067,0.00000027,-0.00000004,0.00000053,0.00000027,0.00000011,0.000000
 11,-0.00000114,-0.00000068,0.00000081,-0.00000064,0.00000095,0.0000008
 5,0.00000024,-0.00000012,-0.00000158,0.00000007,-0.00000050,-0.0000010
 7,0.00000015,0.00000057,-0.00000071,0.00000060,-0.00000068,-0.00000023
 ,0.00000016,-0.00000073,-0.00000016,0.00000004,0.00000022,-0.00000053,
 -0.00000007,0.00000047,0.00000027,-0.00000015,-0.00000037,0.00000135,-
 0.00000069,-0.00000076,0.00000037,0.00000032,0.00000034,0.00000008,-0.
 00000056,0.00000100,-0.00000143,-0.00000050,0.00000048,-0.00000052,-0.
 00000074,-0.00000007,-0.00000049,-0.00000069,0.00000043,-0.00000085,-0
 .00000043,0.00000058,-0.00000064,-0.00000029,-0.00000036,-0.00000009,-
 0.00000033,0.00000008,-0.00000002,-0.00000037,-0.00000002,0.00000026,-
 0.00002785,-0.00001836,0.00003894,-0.00000052,0.,0.00000104,0.00000011
 ,0.00000016,-0.00000063,-0.00000100,-0.00000018,0.00000043,0.00000013,
 -0.00000078,-0.00000110,-0.00000062,-0.00000011,-0.00000102\\\@


 ADVERTISING--  HE WHO HAS SOMETHING TO SELL AND GOES AND WHISPERS
                IN A WELL, IS NOT SO APT TO GET THE DOLLARS AS HE
                WHO CLIMBS A TREE AND HOLLERS.

                   -- FROM THE BACK OF A SUGAR PACKET
 Job cpu time:       0 days 13 hours 39 minutes 10.3 seconds.
 Elapsed time:       0 days  2 hours  0 minutes 56.2 seconds.
 File lengths (MBytes):  RWF=   2974 Int=      0 D2E=      0 Chk=     25 Scr=      1
 Normal termination of Gaussian 16 at Sat Dec 24 03:51:32 2022.
