 Entering Gaussian System, Link 0=g16
 Initial command:
 /prod/precompiled/gaussian/16c2/g16/l1.exe "/scratch/ucsscms/mserrano/1758128/Gau-3986.inp" -scrdir="/scratch/ucsscms/mserrano/1758128/"
 Entering Link 1 = /prod/precompiled/gaussian/16c2/g16/l1.exe PID=      3998.
  
 Copyright (c) 1988-2021, Gaussian, Inc.  All Rights Reserved.
  
 This is part of the Gaussian(R) 16 program.  It is based on
 the Gaussian(R) 09 system (copyright 2009, Gaussian, Inc.),
 the Gaussian(R) 03 system (copyright 2003, Gaussian, Inc.),
 the Gaussian(R) 98 system (copyright 1998, Gaussian, Inc.),
 the Gaussian(R) 94 system (copyright 1995, Gaussian, Inc.),
 the Gaussian 92(TM) system (copyright 1992, Gaussian, Inc.),
 the Gaussian 90(TM) system (copyright 1990, Gaussian, Inc.),
 the Gaussian 88(TM) system (copyright 1988, Gaussian, Inc.),
 the Gaussian 86(TM) system (copyright 1986, Carnegie Mellon
 University), and the Gaussian 82(TM) system (copyright 1983,
 Carnegie Mellon University). Gaussian is a federally registered
 trademark of Gaussian, Inc.
  
 This software contains proprietary and confidential information,
 including trade secrets, belonging to Gaussian, Inc.
  
 This software is provided under written license and may be
 used, copied, transmitted, or stored only in accord with that
 written license.
  
 The following legend is applicable only to US Government
 contracts under FAR:
  
                    RESTRICTED RIGHTS LEGEND
  
 Use, reproduction and disclosure by the US Government is
 subject to restrictions as set forth in subparagraphs (a)
 and (c) of the Commercial Computer Software - Restricted
 Rights clause in FAR 52.227-19.
  
 Gaussian, Inc.
 340 Quinnipiac St., Bldg. 40, Wallingford CT 06492
  
  
 ---------------------------------------------------------------
 Warning -- This program may not be used in any manner that
 competes with the business of Gaussian, Inc. or will provide
 assistance to any competitor of Gaussian, Inc.  The licensee
 of this program is prohibited from giving any competitor of
 Gaussian, Inc. access to this program.  By using this program,
 the user acknowledges that Gaussian, Inc. is engaged in the
 business of creating and licensing software in the field of
 computational chemistry and represents and warrants to the
 licensee that it is not a competitor of Gaussian, Inc. and that
 it will not use this program in any manner prohibited above.
 ---------------------------------------------------------------
  

 Cite this work as:
 Gaussian 16, Revision C.02,
 M. J. Frisch, G. W. Trucks, H. B. Schlegel, G. E. Scuseria, 
 M. A. Robb, J. R. Cheeseman, G. Scalmani, V. Barone, 
 G. A. Petersson, H. Nakatsuji, X. Li, M. Caricato, A. V. Marenich, 
 J. Bloino, B. G. Janesko, R. Gomperts, B. Mennucci, H. P. Hratchian, 
 J. V. Ortiz, A. F. Izmaylov, J. L. Sonnenberg, D. Williams-Young, 
 F. Ding, F. Lipparini, F. Egidi, J. Goings, B. Peng, A. Petrone, 
 T. Henderson, D. Ranasinghe, V. G. Zakrzewski, J. Gao, N. Rega, 
 G. Zheng, W. Liang, M. Hada, M. Ehara, K. Toyota, R. Fukuda, 
 J. Hasegawa, M. Ishida, T. Nakajima, Y. Honda, O. Kitao, H. Nakai, 
 T. Vreven, K. Throssell, J. A. Montgomery, Jr., J. E. Peralta, 
 F. Ogliaro, M. J. Bearpark, J. J. Heyd, E. N. Brothers, K. N. Kudin, 
 V. N. Staroverov, T. A. Keith, R. Kobayashi, J. Normand, 
 K. Raghavachari, A. P. Rendell, J. C. Burant, S. S. Iyengar, 
 J. Tomasi, M. Cossi, J. M. Millam, M. Klene, C. Adamo, R. Cammi, 
 J. W. Ochterski, R. L. Martin, K. Morokuma, O. Farkas, 
 J. B. Foresman, and D. J. Fox, Gaussian, Inc., Wallingford CT, 2019.
 
 ******************************************
 Gaussian 16:  ES64L-G16RevC.02  7-Dec-2021
                 9-Oct-2025 
 ******************************************
 %nprocs=12
 Will use up to   12 processors via shared memory.
 %mem=20gb
 %mem=40gb
 %chk=/home/mserrano/Azos/MCS/dft/ts/123_TSinv_l_B.chk
 ----------------------------------------------------------------------
 #p UwB97XD/def2svp nosymm NoFMM maxdisk=200gb scf=(maxconventionalcycl
 es=40,xqc) Opt=(TS,NoEigenTest,RecalcFC=10,Cartesian,SkipDihedral,MaxC
 ycles=300) freq
 ----------------------------------------------------------------------
 1/5=1,6=300,10=7,11=1,18=10,26=3,38=1,71=10,156=2/1,3;
 2/12=2,15=1,17=6,18=5,29=2,40=1/2;
 3/5=43,7=101,11=2,25=1,30=1,49=2048,71=2,74=-58,116=2,140=1/1,2,3;
 4//1;
 5/5=2,8=3,13=1,38=5,85=40/2,8;
 8/6=4,10=90,11=11/1;
 11/6=1,8=1,9=11,15=111,16=1,31=1/1,2,10;
 10/6=1,31=1/2;
 6/7=2,8=2,9=2,10=2,28=1/1;
 7/7=1,10=1,25=1,30=1/1,2,3,16;
 1/5=1,6=300,10=7,11=1,18=10,26=3,71=10,156=2/3(3);
 2/15=1,29=1/2;
 7/7=1,9=1,25=1,30=1,44=-1/16;
 99/12=1/99;
 2/15=1,29=1/2;
 3/5=43,7=101,11=2,25=1,30=1,49=2048,71=2,74=-58,116=2,140=1/1,2,3;
 4/5=5,16=3,69=1/1;
 5/5=2,8=3,13=1,38=5,85=40/2,8;
 8/6=4,10=90,11=11/1;
 11/6=1,8=1,9=11,15=111,16=1,31=1/1,2,10;
 10/6=1,31=1/2;
 7/7=1,10=1,25=1,30=1/1,2,3,16;
 1/5=1,6=300,11=1,18=10,26=3,71=10,156=2/3(-8);
 2/15=1,29=1/2;
 6/7=2,8=2,9=2,10=2,19=2,28=1/1;
 7/7=1,9=1,25=1,30=1,44=-1/16;
 99/9=1,12=1/99;
 Leave Link    1 at Thu Oct  9 17:54:51 2025, MaxMem=  5368709120 cpu:               0.1 elap:               0.1
 (Enter /prod/precompiled/gaussian/16c2/g16/l101.exe)
 -------------------
 Title Card Required
 -------------------
 Symbolic Z-matrix:
 Charge =  0 Multiplicity = 1
 C                     1.41316   0.        0. 
 C                     2.16039  -1.20239  -0.0021 
 N                     1.49282  -2.44953  -0.11392 
 C                     3.55809  -1.12167  -0.13699 
 Cl                    4.5222   -2.55713  -0.21841 
 C                     4.20917   0.11178  -0.2174 
 C                     3.47576   1.30565  -0.21054 
 C                     4.1654    2.64269  -0.41567 
 O                     5.15119   2.81389   0.60592 
 C                     4.84854   2.76769  -1.80565 
 N                     3.91808   2.5652   -2.92611 
 C                     4.55892   2.64733  -4.24399 
 C                     5.51267   1.48039  -4.51405 
 C                     3.44512   2.64853  -5.29435 
 C                     2.07893   1.23442  -0.09149 
 N                     0.        0.        0. 
 N                    -1.25065   0.00218   0. 
 C                    -1.80241  -1.29604   0.10636 
 C                    -3.13069  -1.40552   0.54251 
 C                    -3.75326  -2.6524    0.65913 
 C                    -3.05362  -3.8123    0.33739 
 C                    -1.73313  -3.72604  -0.09777 
 C                    -1.11485  -2.47725  -0.21364 
 H                     2.05201  -3.22823   0.2237 
 H                     0.55845  -2.40763   0.29154 
 H                     5.29242   0.14216  -0.32344 
 H                     3.44378   3.46008  -0.29857 
 H                     4.7498    2.52225   1.44247 
 H                     5.30393   3.76372  -1.87593 
 H                     5.67782   2.05236  -1.85059 
 H                     3.46453   1.65493  -2.8316 
 H                     5.1067    3.59319  -4.33303 
 H                     5.02132   0.51452  -4.35079 
 H                     5.86762   1.5026   -5.55031 
 H                     6.39688   1.52478  -3.87084 
 H                     2.76205   3.49183  -5.14301 
 H                     3.86302   2.73817  -6.30295 
 H                     2.8557    1.72469  -5.25748 
 H                     1.48338   2.14614  -0.11098 
 H                    -3.68856  -0.50729   0.79498 
 H                    -4.78427  -2.71608   0.9989 
 H                    -3.53573  -4.78292   0.42372 
 H                    -1.18224  -4.62847  -0.34947 
 H                    -0.08462  -2.43438  -0.55838 
 
 ITRead=  0  0  0  0  0  0  0  0  0  0  0  0  0  0  0  0  0  0  0  0
 ITRead=  0  0  0  0  0  0  0  0  0  0  0  0  0  0  0  0  0  0  0  0
 ITRead=  0  0  0  0
 MicOpt= -1 -1 -1 -1 -1 -1 -1 -1 -1 -1 -1 -1 -1 -1 -1 -1 -1 -1 -1 -1
 MicOpt= -1 -1 -1 -1 -1 -1 -1 -1 -1 -1 -1 -1 -1 -1 -1 -1 -1 -1 -1 -1
 MicOpt= -1 -1 -1 -1
 NAtoms=     44 NQM=       44 NQMF=       0 NMMI=      0 NMMIF=      0
                NMic=       0 NMicF=      0.
                    Isotopes and Nuclear Properties:
 (Nuclear quadrupole moments (NQMom) in fm**2, nuclear magnetic moments (NMagM)
  in nuclear magnetons)

  Atom         1           2           3           4           5           6           7           8           9          10
 IAtWgt=          12          12          14          12          35          12          12          12          16          12
 AtmWgt=  12.0000000  12.0000000  14.0030740  12.0000000  34.9688527  12.0000000  12.0000000  12.0000000  15.9949146  12.0000000
 NucSpn=           0           0           2           0           3           0           0           0           0           0
 AtZEff=  -0.0000000  -0.0000000  -0.0000000  -0.0000000  -0.0000000  -0.0000000  -0.0000000  -0.0000000  -0.0000000  -0.0000000
 NQMom=    0.0000000   0.0000000   2.0440000   0.0000000  -8.1650000   0.0000000   0.0000000   0.0000000   0.0000000   0.0000000
 NMagM=    0.0000000   0.0000000   0.4037610   0.0000000   0.8218740   0.0000000   0.0000000   0.0000000   0.0000000   0.0000000
 AtZNuc=   6.0000000   6.0000000   7.0000000   6.0000000  17.0000000   6.0000000   6.0000000   6.0000000   8.0000000   6.0000000

  Atom        11          12          13          14          15          16          17          18          19          20
 IAtWgt=          14          12          12          12          12          14          14          12          12          12
 AtmWgt=  14.0030740  12.0000000  12.0000000  12.0000000  12.0000000  14.0030740  14.0030740  12.0000000  12.0000000  12.0000000
 NucSpn=           2           0           0           0           0           2           2           0           0           0
 AtZEff=  -0.0000000  -0.0000000  -0.0000000  -0.0000000  -0.0000000  -0.0000000  -0.0000000  -0.0000000  -0.0000000  -0.0000000
 NQMom=    2.0440000   0.0000000   0.0000000   0.0000000   0.0000000   2.0440000   2.0440000   0.0000000   0.0000000   0.0000000
 NMagM=    0.4037610   0.0000000   0.0000000   0.0000000   0.0000000   0.4037610   0.4037610   0.0000000   0.0000000   0.0000000
 AtZNuc=   7.0000000   6.0000000   6.0000000   6.0000000   6.0000000   7.0000000   7.0000000   6.0000000   6.0000000   6.0000000

  Atom        21          22          23          24          25          26          27          28          29          30
 IAtWgt=          12          12          12           1           1           1           1           1           1           1
 AtmWgt=  12.0000000  12.0000000  12.0000000   1.0078250   1.0078250   1.0078250   1.0078250   1.0078250   1.0078250   1.0078250
 NucSpn=           0           0           0           1           1           1           1           1           1           1
 AtZEff=  -0.0000000  -0.0000000  -0.0000000  -0.0000000  -0.0000000  -0.0000000  -0.0000000  -0.0000000  -0.0000000  -0.0000000
 NQMom=    0.0000000   0.0000000   0.0000000   0.0000000   0.0000000   0.0000000   0.0000000   0.0000000   0.0000000   0.0000000
 NMagM=    0.0000000   0.0000000   0.0000000   2.7928460   2.7928460   2.7928460   2.7928460   2.7928460   2.7928460   2.7928460
 AtZNuc=   6.0000000   6.0000000   6.0000000   1.0000000   1.0000000   1.0000000   1.0000000   1.0000000   1.0000000   1.0000000

  Atom        31          32          33          34          35          36          37          38          39          40
 IAtWgt=           1           1           1           1           1           1           1           1           1           1
 AtmWgt=   1.0078250   1.0078250   1.0078250   1.0078250   1.0078250   1.0078250   1.0078250   1.0078250   1.0078250   1.0078250
 NucSpn=           1           1           1           1           1           1           1           1           1           1
 AtZEff=  -0.0000000  -0.0000000  -0.0000000  -0.0000000  -0.0000000  -0.0000000  -0.0000000  -0.0000000  -0.0000000  -0.0000000
 NQMom=    0.0000000   0.0000000   0.0000000   0.0000000   0.0000000   0.0000000   0.0000000   0.0000000   0.0000000   0.0000000
 NMagM=    2.7928460   2.7928460   2.7928460   2.7928460   2.7928460   2.7928460   2.7928460   2.7928460   2.7928460   2.7928460
 AtZNuc=   1.0000000   1.0000000   1.0000000   1.0000000   1.0000000   1.0000000   1.0000000   1.0000000   1.0000000   1.0000000

  Atom        41          42          43          44
 IAtWgt=           1           1           1           1
 AtmWgt=   1.0078250   1.0078250   1.0078250   1.0078250
 NucSpn=           1           1           1           1
 AtZEff=  -0.0000000  -0.0000000  -0.0000000  -0.0000000
 NQMom=    0.0000000   0.0000000   0.0000000   0.0000000
 NMagM=    2.7928460   2.7928460   2.7928460   2.7928460
 AtZNuc=   1.0000000   1.0000000   1.0000000   1.0000000
 Leave Link  101 at Thu Oct  9 17:54:51 2025, MaxMem=  5368709120 cpu:               0.1 elap:               0.1
 (Enter /prod/precompiled/gaussian/16c2/g16/l103.exe)

 GradGradGradGradGradGradGradGradGradGradGradGradGradGradGradGradGradGrad
 Berny optimization.
 Initialization pass.
 No Z-matrix variables, so optimization will use Cartesian coordinates.
 Trust Radius=3.00D-01 FncErr=1.00D-07 GrdErr=1.00D-06 EigMax=2.50D+02 EigMin=1.00D-04
 Number of steps in this run=    264 maximum allowed number of steps=    264.
 Search for a saddle point of order  1.
 Step   0 in ReCalcFC=10 IGetFC= 4 compute analytic Hessian.
 GradGradGradGradGradGradGradGradGradGradGradGradGradGradGradGradGradGrad

 Leave Link  103 at Thu Oct  9 17:54:51 2025, MaxMem=  5368709120 cpu:               0.1 elap:               0.1
 (Enter /prod/precompiled/gaussian/16c2/g16/l202.exe)
 ---------------------------------------------------------------------------------------------------
                            Z-MATRIX (ANGSTROMS AND DEGREES)
   CD    Cent   Atom    N1       Length/X        N2       Alpha/Y        N3        Beta/Z          J
 ---------------------------------------------------------------------------------------------------
      1      1  C        0   1.413159          0.000000          0.000000
      2      2  C        0   2.160390         -1.202392         -0.002099
      3      3  N        0   1.492824         -2.449526         -0.113919
      4      4  C        0   3.558094         -1.121666         -0.136988
      5      5  Cl       0   4.522199         -2.557127         -0.218407
      6      6  C        0   4.209165          0.111775         -0.217395
      7      7  C        0   3.475756          1.305652         -0.210538
      8      8  C        0   4.165395          2.642685         -0.415670
      9      9  O        0   5.151187          2.813890          0.605916
     10     10  C        0   4.848540          2.767686         -1.805648
     11     11  N        0   3.918083          2.565204         -2.926111
     12     12  C        0   4.558922          2.647333         -4.243991
     13     13  C        0   5.512673          1.480388         -4.514054
     14     14  C        0   3.445115          2.648525         -5.294353
     15     15  C        0   2.078934          1.234424         -0.091494
     16     16  N        0   0.000000          0.000000          0.000000
     17     17  N        0  -1.250646          0.002183          0.000000
     18     18  C        0  -1.802406         -1.296043          0.106364
     19     19  C        0  -3.130693         -1.405523          0.542514
     20     20  C        0  -3.753256         -2.652401          0.659125
     21     21  C        0  -3.053618         -3.812296          0.337390
     22     22  C        0  -1.733129         -3.726042         -0.097770
     23     23  C        0  -1.114855         -2.477252         -0.213637
     24     24  H        0   2.052011         -3.228229          0.223695
     25     25  H        0   0.558452         -2.407632          0.291544
     26     26  H        0   5.292422          0.142164         -0.323435
     27     27  H        0   3.443776          3.460083         -0.298573
     28     28  H        0   4.749803          2.522245          1.442470
     29     29  H        0   5.303930          3.763722         -1.875931
     30     30  H        0   5.677823          2.052365         -1.850593
     31     31  H        0   3.464531          1.654926         -2.831598
     32     32  H        0   5.106697          3.593189         -4.333025
     33     33  H        0   5.021318          0.514515         -4.350793
     34     34  H        0   5.867622          1.502602         -5.550310
     35     35  H        0   6.396879          1.524778         -3.870844
     36     36  H        0   2.762052          3.491825         -5.143005
     37     37  H        0   3.863017          2.738169         -6.302952
     38     38  H        0   2.855701          1.724693         -5.257483
     39     39  H        0   1.483379          2.146139         -0.110984
     40     40  H        0  -3.688559         -0.507293          0.794980
     41     41  H        0  -4.784271         -2.716078          0.998904
     42     42  H        0  -3.535726         -4.782922          0.423718
     43     43  H        0  -1.182243         -4.628465         -0.349466
     44     44  H        0  -0.084624         -2.434376         -0.558382
 ---------------------------------------------------------------------------------------------------
                         Z-Matrix orientation:                         
 ---------------------------------------------------------------------
 Center     Atomic      Atomic             Coordinates (Angstroms)
 Number     Number       Type             X           Y           Z
 ---------------------------------------------------------------------
      1          6           0        1.413159    0.000000    0.000000
      2          6           0        2.160390   -1.202392   -0.002099
      3          7           0        1.492824   -2.449526   -0.113919
      4          6           0        3.558094   -1.121666   -0.136988
      5         17           0        4.522199   -2.557127   -0.218407
      6          6           0        4.209165    0.111775   -0.217395
      7          6           0        3.475756    1.305652   -0.210538
      8          6           0        4.165395    2.642685   -0.415670
      9          8           0        5.151187    2.813890    0.605916
     10          6           0        4.848540    2.767686   -1.805648
     11          7           0        3.918083    2.565204   -2.926111
     12          6           0        4.558922    2.647333   -4.243991
     13          6           0        5.512673    1.480388   -4.514054
     14          6           0        3.445115    2.648525   -5.294353
     15          6           0        2.078934    1.234424   -0.091494
     16          7           0        0.000000    0.000000    0.000000
     17          7           0       -1.250646    0.002183    0.000000
     18          6           0       -1.802406   -1.296043    0.106364
     19          6           0       -3.130693   -1.405523    0.542514
     20          6           0       -3.753256   -2.652401    0.659125
     21          6           0       -3.053618   -3.812296    0.337390
     22          6           0       -1.733129   -3.726042   -0.097770
     23          6           0       -1.114855   -2.477252   -0.213637
     24          1           0        2.052011   -3.228229    0.223695
     25          1           0        0.558452   -2.407632    0.291544
     26          1           0        5.292422    0.142164   -0.323435
     27          1           0        3.443776    3.460083   -0.298573
     28          1           0        4.749803    2.522245    1.442470
     29          1           0        5.303930    3.763722   -1.875931
     30          1           0        5.677823    2.052365   -1.850593
     31          1           0        3.464531    1.654926   -2.831598
     32          1           0        5.106697    3.593189   -4.333025
     33          1           0        5.021318    0.514515   -4.350793
     34          1           0        5.867622    1.502602   -5.550310
     35          1           0        6.396879    1.524778   -3.870844
     36          1           0        2.762052    3.491825   -5.143005
     37          1           0        3.863017    2.738169   -6.302952
     38          1           0        2.855701    1.724693   -5.257483
     39          1           0        1.483379    2.146139   -0.110984
     40          1           0       -3.688559   -0.507293    0.794980
     41          1           0       -4.784271   -2.716078    0.998904
     42          1           0       -3.535726   -4.782922    0.423718
     43          1           0       -1.182243   -4.628465   -0.349466
     44          1           0       -0.084624   -2.434376   -0.558382
 ---------------------------------------------------------------------
                    Distance matrix (angstroms):
                    1          2          3          4          5
     1  C    0.000000
     2  C    1.415664   0.000000
     3  N    2.453467   1.418975   0.000000
     4  C    2.424386   1.406516   2.455419   0.000000
     5  Cl   4.031467   2.731344   3.033086   1.731091   0.000000
     6  C    2.806671   2.443536   3.734900   1.397045   2.687197
     7  C    2.450175   2.839704   4.247672   2.429828   4.002020
     8  C    3.838147   4.356111   5.758846   3.823195   5.215771
     9  O    4.717835   5.044311   6.450219   4.310273   5.470188
    10  C    4.766791   5.122544   6.429781   4.424561   5.565920
    11  N    4.627855   5.082727   6.240018   4.637004   5.825366
    12  C    5.908947   6.210232   7.241300   5.663434   6.579748
    13  C    6.274890   6.228390   7.138949   5.454335   5.977888
    14  C    6.258890   6.669935   7.525853   6.389485   7.350112
    15  C    1.405500   2.439815   3.730351   2.782291   4.512373
    16  N    1.413159   2.472455   2.870832   3.733220   5.199700
    17  N    2.663806   3.617481   3.681098   4.940221   6.318505
    18  C    3.468559   3.965386   3.498226   5.368853   6.457278
    19  C    4.787108   5.322915   4.785160   6.729203   7.776371
    20  C    5.844786   6.124619   5.306610   7.512176   8.322397
    21  C    5.882136   5.840611   4.767699   7.153968   7.699179
    22  C    4.877712   4.640846   3.469370   5.897572   6.364750
    23  C    3.545881   3.520972   2.609732   4.866204   5.637622
    24  H    3.298429   2.041261   1.016391   2.614572   2.597626
    25  H    2.571423   2.026089   1.019415   3.291687   3.999211
    26  H    3.895318   3.423553   4.604096   2.154048   2.808994
    27  H    4.023024   4.844961   6.226057   4.586022   6.113611
    28  H    4.424436   4.760752   6.144002   4.146438   5.348863
    29  H    5.729120   6.168904   7.498911   5.471643   6.581157
    30  H    5.081757   5.136410   6.387275   4.183798   5.024631
    31  H    3.868443   4.227424   5.302823   3.870289   5.068414
    32  H    6.732632   7.101777   8.208248   6.498827   7.422810
    33  H    5.675644   5.481224   6.259945   4.751238   5.173076
    34  H    7.273651   7.200223   8.019509   6.443971   6.835258
    35  H    6.491983   6.352360   7.345702   5.385541   5.789358
    36  H    6.361042   6.987602   7.886843   6.854064   7.996224
    37  H    7.295655   7.624153   8.416301   7.280825   8.092983
    38  H    5.718096   6.055604   6.762972   5.900389   6.819346
    39  H    2.150154   3.418020   4.595676   3.870874   5.600596
    40  H    5.188147   5.943795   5.607593   7.332121   8.523222
    41  H    6.839812   7.177853   6.380544   8.568982   9.387092
    42  H    6.895458   6.741458   5.569570   8.002591   8.384309
    43  H    5.317981   4.799149   3.458214   5.900303   6.070278
    44  H    2.912272   2.620558   1.638938   3.894891   4.620981
                    6          7          8          9         10
     6  C    0.000000
     7  C    1.401170   0.000000
     8  C    2.539042   1.518334   0.000000
     9  O    2.977696   2.397592   1.429942   0.000000
    10  C    3.159938   2.562510   1.553818   2.430920   0.000000
    11  N    3.666222   3.025964   2.523783   3.749347   1.470438
    12  C    4.771253   4.386582   3.848497   4.888775   2.458430
    13  C    4.693987   4.764432   4.467980   5.303112   3.071428
    14  C    5.726637   5.258272   4.931570   6.144201   3.762295
    15  C    2.411240   1.403694   2.538032   3.524178   3.599991
    16  N    4.216257   3.718862   4.950463   5.900834   5.867605
    17  N    5.465236   4.907365   6.039746   7.018283   6.936025
    18  C    6.182698   5.893067   7.169431   8.092809   8.025258
    19  C    7.533470   7.180719   8.398750   9.294999   9.305788
    20  C    8.474025   8.287407   9.586352  10.448554  10.461517
    21  C    8.273702   8.314225   9.713291  10.549752  10.503946
    22  C    7.074886   7.243145   8.686445   9.521538   9.402325
    23  C    5.920157   5.948452   7.357691   8.242035   8.099750
    24  H    4.000438   4.771969   6.272385   6.801337   6.920246
    25  H    4.464766   4.748813   6.246270   6.961059   7.041803
    26  H    1.088859   2.160260   2.744322   2.832271   3.047516
    27  H    3.435633   2.156466   1.096624   2.037380   2.173488
    28  H    2.976207   2.415726   1.951595   0.972619   3.258874
    29  H    4.157640   3.486813   2.164566   2.661781   1.097455
    30  H    2.930901   2.845428   2.166776   2.625205   1.096091
    31  H    3.125676   2.644253   2.702515   4.000564   2.050924
    32  H    5.464816   4.988757   4.139466   5.000242   2.671280
    33  H    4.231639   4.489585   4.554877   5.465616   3.403586
    34  H    5.755420   5.854313   5.528281   6.334972   4.081845
    35  H    4.486687   4.688157   4.262331   4.822337   2.864823
    36  H    6.146585   5.442238   5.003809   6.262400   4.001970
    37  H    6.637151   6.270533   5.895815   7.028341   4.604114
    38  H    5.462221   5.102129   5.099133   6.390231   4.120001
    39  H    3.402921   2.164693   2.744558   3.796400   3.818706
    40  H    7.986375   7.458233   8.548253   9.444952   9.506356
    41  H    9.505684   9.266343  10.526817  11.377535  11.433645
    42  H    9.184357   9.307733  10.730866  11.541543  11.501203
    43  H    7.180153   7.545197   9.026142   9.819050   9.653697
    44  H    5.003577   5.175433   6.622656   7.504239   7.276897
                   11         12         13         14         15
    11  N    0.000000
    12  C    1.467729   0.000000
    13  C    2.498221   1.531122   0.000000
    14  C    2.416446   1.530956   2.499641   0.000000
    15  C    3.631597   5.038838   5.604471   5.562003   0.000000
    16  N    5.522117   6.767836   7.277211   6.849356   2.419533
    17  N    6.468923   7.665465   8.264639   7.555360   3.551463
    18  C    7.538510   8.656922   9.086650   8.500814   4.637587
    19  C    8.802458   9.923026  10.421379   9.682230   5.874649
    20  C    9.946193  11.009997  11.388554  10.740589   7.048778
    21  C    9.996377  10.984836  11.177225  10.756034   7.210854
    22  C    8.917146   9.869193   9.955507   9.718734   6.256044
    23  C    7.623276   8.642735   8.836324   8.537013   4.898137
    24  H    6.853274   7.795322   7.522867   8.180821   4.473851
    25  H    6.809517   7.882101   7.921791   8.068444   3.965243
    26  H    3.812329   4.710059   4.404616   5.865528   3.401960
    27  H    2.815978   4.179765   5.096058   5.061269   2.619014
    28  H    4.447258   5.691039   6.094884   6.863158   3.338423
    29  H    2.111846   2.721961   3.495265   4.047773   4.470141
    30  H    2.125189   2.708188   2.729186   4.147273   4.088454
    31  H    1.021395   2.043873   2.656315   2.655707   3.099173
    32  H    2.109257   1.096644   2.159054   2.139485   5.720289
    33  H    2.729867   2.184978   1.095899   2.815798   5.226617
    34  H    3.437477   2.174758   1.095586   2.692061   6.650169
    35  H    2.849462   2.185739   1.094308   3.464404   5.745645
    36  H    2.666393   2.179480   3.465166   1.095735   5.574968
    37  H    3.381716   2.175283   2.739258   1.095422   6.635240
    38  H    2.696370   2.186182   2.769814   1.096464   5.247016
    39  H    3.745442   5.176090   6.005453   5.564900   1.089169
    40  H    9.008205  10.166801  10.807377   9.895881   6.089613
    41  H   10.910025  11.981209  12.410886  11.666484   7.993686
    42  H   10.989794  11.938154  12.061682  11.689948   8.246108
    43  H    9.187018  10.053136   9.974156   9.940771   6.713814
    44  H    6.828148   7.808329   7.893190   7.792584   4.284747
                   16         17         18         19         20
    16  N    0.000000
    17  N    1.250648   0.000000
    18  C    2.222545   1.414618   0.000000
    19  C    3.474342   2.410505   1.402341   0.000000
    20  C    4.642909   3.707333   2.439481   1.398531   0.000000
    21  C    4.896123   4.232587   2.819651   2.416728   1.392251
    22  C    4.110558   3.760586   2.439542   2.783515   2.409670
    23  C    2.724944   2.492324   1.403703   2.404989   2.784520
    24  H    3.831743   4.625272   4.313194   5.503119   5.849983
    25  H    2.488686   3.027382   2.616022   3.831057   4.334265
    26  H    5.304201   6.552552   7.251879   8.607791   9.518367
    27  H    4.890901   5.838135   7.092752   8.222238   9.490886
    28  H    5.568040   6.666095   7.700386   8.850960   9.984618
    29  H    6.768781   7.786576   8.945989  10.183950  11.385331
    30  H    6.314631   7.458661   8.425873   9.760835  10.834148
    31  H    4.770713   5.743031   6.714199   8.015482   9.101355
    32  H    7.600294   8.490362   9.557639  10.798731  11.934309
    33  H    6.663915   7.650452   8.349106   9.699808  10.588757
    34  H    8.215397   9.150242   9.932759  11.249416  12.181233
    35  H    7.630756   8.705537   9.539575  10.901331  11.874118
    36  H    6.802373   7.397962   8.444752   9.541152  10.670776
    37  H    7.883380   8.565184   9.457865  10.627444  11.642009
    38  H    6.226614   6.889866   7.719693   8.903658   9.891588
    39  H    2.611253   3.476170   4.763637   5.859268   7.144326
    40  H    3.807205   2.614379   2.157288   1.087093   2.150379
    41  H    5.591434   4.568726   3.421205   2.158742   1.087427
    42  H    5.962989   5.319620   3.906845   3.403673   2.154497
    43  H    4.789834   4.644320   3.420149   3.870328   3.395908
    44  H    2.499027   2.758300   2.165286   3.398389   3.871527
                   21         22         23         24         25
    21  C    0.000000
    22  C    1.393017   0.000000
    23  C    2.417597   1.398272   0.000000
    24  H    5.140186   3.831246   3.283941   0.000000
    25  H    3.875852   2.672286   1.749289   1.705492   0.000000
    26  H    9.259094   8.023236   6.922904   4.707352   5.412036
    27  H    9.772823   8.858954   7.486005   6.851517   6.565319
    28  H   10.111429   9.134650   7.882377   6.467723   6.572347
    29  H   11.495366  10.429699   9.105700   7.991920   8.081035
    30  H   10.743351   9.559529   8.326916   6.733042   7.119570
    31  H    9.078506   7.965193   6.700701   5.930871   5.890984
    32  H   11.968489  10.876201   9.619112   8.753659   8.836460
    33  H   10.291013   9.038423   7.982440   6.614443   7.071592
    34  H   11.937407  10.716358   9.647502   8.383244   8.809340
    35  H   11.640682  10.387696   9.263776   7.631134   8.177809
    36  H   10.826215   9.887298   8.657884   8.629296   8.318279
    37  H   11.612173  10.564429   9.437138   9.026338   8.993709
    38  H    9.842810   8.797188   7.672160   7.431061   7.290073
    39  H    7.502555   6.695417   5.304442   5.414719   4.664156
    40  H    3.396407   3.870537   3.394407   6.378401   4.679940
    41  H    2.152778   3.395908   3.871938   6.899130   5.398165
    42  H    1.087196   2.153672   3.403374   5.803437   4.735163
    43  H    2.154054   1.086827   2.156550   3.570654   2.893616
    44  H    3.393523   2.144326   1.087227   2.409783   1.066131
                   26         27         28         29         30
    26  H    0.000000
    27  H    3.798249   0.000000
    28  H    3.012912   2.369911   0.000000
    29  H    3.940312   2.457728   3.586099   0.000000
    30  H    2.475806   3.062907   3.453444   1.751908   0.000000
    31  H    3.452610   3.110504   4.546628   2.956976   2.453363
    32  H    5.293475   4.365756   5.884780   2.470889   2.977044
    33  H    4.053610   5.252190   6.137312   4.094161   3.007820
    34  H    5.431562   6.106349   7.154590   4.351031   3.745153
    35  H    3.964285   5.022683   5.651469   3.191721   2.208349
    36  H    6.391499   4.892267   6.946922   4.148354   4.627499
    37  H    6.673610   6.062136   7.799011   4.767232   4.856681
    38  H    5.725979   5.286606   7.008073   4.646112   4.436061
    39  H    4.309276   2.367445   3.636509   4.508683   4.541849
    40  H    9.073625   8.234448   8.989065  10.307288  10.063797
    41  H   10.557361  10.369627  10.887394  12.329813  11.845383
    42  H   10.136612  10.825077  11.092940  12.508918  11.695432
    43  H    8.042442   9.318114   9.462180  10.715845   9.692646
    44  H    5.967108   6.874718   7.207162   8.317985   7.416633
                   31         32         33         34         35
    31  H    0.000000
    32  H    2.950908   0.000000
    33  H    2.456029   3.079909   0.000000
    34  H    3.631727   2.536009   1.769573   0.000000
    35  H    3.113782   2.481231   1.772893   1.761025   0.000000
    36  H    3.034844   2.482680   3.820505   3.710454   4.324307
    37  H    3.658211   2.481615   3.177613   2.472152   3.715901
    38  H    2.502091   3.068042   2.641309   3.034261   3.808238
    39  H    3.401175   5.748740   5.758054   7.015839   6.218128
    40  H    8.306260  10.975742  10.167843  11.645728  11.296694
    41  H   10.090647  12.886720  11.627793  13.196677  12.911910
    42  H   10.052192  12.941303  11.139201  12.791395  12.525453
    43  H    8.199664  11.091217   8.996946  10.692958  10.378131
    44  H    5.872512   8.805071   7.010634   8.709097   8.285963
                   36         37         38         39         40
    36  H    0.000000
    37  H    1.767936   0.000000
    38  H    1.773311   1.770544   0.000000
    39  H    5.363498   6.659853   5.342971   0.000000
    40  H    9.636545  10.860017   9.189201   5.883062   0.000000
    41  H   11.541581  12.563499  10.827373   8.009772   2.474045
    42  H   11.794993  12.512246  10.745950   8.572585   4.294438
    43  H   10.221281  10.731540   8.986448   7.284070   4.957362
    44  H    8.015123   8.679814   6.930001   4.862090   4.305065
                   41         42         43         44
    41  H    0.000000
    42  H    2.482246   0.000000
    43  H    4.295338   2.482046   0.000000
    44  H    4.958949   4.288391   2.462202   0.000000
 Symmetry turned off by external request.
 Stoichiometry    C17H21ClN4O
 Framework group  C1[X(C17H21ClN4O)]
 Deg. of freedom   126
 Full point group                 C1      NOp   1
 Rotational constants (GHZ):           0.3520508           0.1100456           0.1017564
 Leave Link  202 at Thu Oct  9 17:54:51 2025, MaxMem=  5368709120 cpu:               0.1 elap:               0.0
 (Enter /prod/precompiled/gaussian/16c2/g16/l301.exe)
 Standard basis: def2SVP (5D, 7F)
 Ernie: Thresh=  0.10000D-02 Tol=  0.10000D-05 Strict=F.
   431 basis functions,   734 primitive gaussians,   454 cartesian basis functions
    88 alpha electrons       88 beta electrons
       nuclear repulsion energy      1981.6905110123 Hartrees.
 IExCor= 4639 DFT=T Ex+Corr=wB97XD ExCW=0 ScaHFX=  1.000000
 ScaDFX=  1.000000  1.000000  1.000000  1.000000 ScalE2=  1.000000  1.000000
 IRadAn=      5 IRanWt=     -1 IRanGd=            0 ICorTp=0 IEmpDi=121
 HFx  wShort=  0.000000 wLong=  0.200000 cFull=  0.222036 cShort=  0.000000 cLong=  0.777964
 DFx  wShort=  0.000000 wLong=  0.200000 cFull=  0.000000 cShort=  0.000000 cLong=  1.000000
 Integral buffers will be    131072 words long.
 Raffenetti 2 integral format.
 Two-electron integral symmetry is turned off.
 R6Disp:  Grimme-D2 Dispersion energy=       -0.0334554509 Hartrees.
 Nuclear repulsion after empirical dispersion term =     1981.6570555614 Hartrees.
 Leave Link  301 at Thu Oct  9 17:54:51 2025, MaxMem=  5368709120 cpu:               0.1 elap:               0.0
 (Enter /prod/precompiled/gaussian/16c2/g16/l302.exe)
 NPDir=0 NMtPBC=     1 NCelOv=     1 NCel=       1 NClECP=     1 NCelD=      1
         NCelK=      1 NCelE2=     1 NClLst=     1 CellRange=     0.0.
 One-electron integrals computed using PRISM.
   1 Symmetry operations used in ECPInt.
 ECPInt:  NShTT=   20706 NPrTT=   75450 LenC2=   17395 LenP2D=   42967.
 LDataN:  DoStor=T MaxTD1= 4 Len=   56
 NBasis=   431 RedAO= T EigKep=  1.73D-04  NBF=   431
 NBsUse=   431 1.00D-06 EigRej= -1.00D+00 NBFU=   431
 Precomputing XC quadrature grid using
 IXCGrd= 4 IRadAn=           5 IRanWt=          -1 IRanGd=           0 AccXCQ= 0.00D+00.
 Generated NRdTot=       0 NPtTot=           0 NUsed=           0 NTot=          32
 NSgBfM=   445   445   445   445   445 MxSgAt=    44 MxSgA2=    44.
 Leave Link  302 at Thu Oct  9 17:54:52 2025, MaxMem=  5368709120 cpu:               3.2 elap:               0.7
 (Enter /prod/precompiled/gaussian/16c2/g16/l303.exe)
 DipDrv:  MaxL=1.
 Leave Link  303 at Thu Oct  9 17:54:52 2025, MaxMem=  5368709120 cpu:               0.3 elap:               0.2
 (Enter /prod/precompiled/gaussian/16c2/g16/l401.exe)
 ExpMin= 1.22D-01 ExpMax= 1.04D+04 ExpMxC= 1.57D+03 IAcc=3 IRadAn=         5 AccDes= 0.00D+00
 Harris functional with IExCor= 4639 and IRadAn=       5 diagonalized for initial guess.
 HarFok:  IExCor= 4639 AccDes= 0.00D+00 IRadAn=         5 IDoV= 1 UseB2=F ITyADJ=14
 ICtDFT=  3500011 ScaDFX=  1.000000  1.000000  1.000000  1.000000
 FoFCou: FMM=F IPFlag=           0 FMFlag=      100000 FMFlg1=         800
         NFxFlg=           0 DoJE=T BraDBF=F KetDBF=T FulRan=T
         wScrn=  0.000000 ICntrl=       500 IOpCl=  0 I1Cent=   200000004 NGrid=           0
         NMat0=    1 NMatS0=      1 NMatT0=    0 NMatD0=    1 NMtDS0=    0 NMtDT0=    0
 Symmetry not used in FoFCou.
 Harris En= -1364.00757579175    
 JPrj=0 DoOrth=F DoCkMO=F.
 Initial guess <Sx>= 0.0000 <Sy>= 0.0000 <Sz>= 0.0000 <S**2>=-0.0000 S=-0.0000
 Leave Link  401 at Thu Oct  9 17:54:54 2025, MaxMem=  5368709120 cpu:              10.6 elap:               1.4
 (Enter /prod/precompiled/gaussian/16c2/g16/l502.exe)
 Two-electron integral symmetry not used.
 UHF open shell SCF:
 Using DIIS extrapolation, IDIIS=  1040.
 NGot=  5368709120 LenX=  5368286628 LenY=  5368080058
 Requested convergence on RMS density matrix=1.00D-08 within  40 cycles.
 Requested convergence on MAX density matrix=1.00D-06.
 Requested convergence on             energy=1.00D-06.
 No special actions if energy rises.
 Fock matrices will be formed incrementally for  20 cycles.
 Integral accuracy reduced to 1.0D-05 until final iterations.

 Cycle   1  Pass 0  IDiag  1:
 FoFJK:  IHMeth= 1 ICntrl=       0 DoSepK=T KAlg= 0 I1Cent=           0 FoldK=F
 IRaf=         1 NMat=       1 IRICut=       1 DoRegI=T DoRafI=F ISym2E= 0 IDoP0=0 IntGTp=1.
 FoFCou: FMM=F IPFlag=           0 FMFlag=      100000 FMFlg1=         800
         NFxFlg=           0 DoJE=T BraDBF=F KetDBF=F FulRan=T
         wScrn=  0.000000 ICntrl=       500 IOpCl=  0 I1Cent=           0 NGrid=           0
         NMat0=    1 NMatS0=      1 NMatT0=    0 NMatD0=    1 NMtDS0=    0 NMtDT0=    0
 Symmetry not used in FoFCou.
 E= -1413.19443777309    
 DIIS: error= 4.38D-02 at cycle   1 NSaved=   1.
 NSaved= 1 IEnMin= 1 EnMin= -1413.19443777309     IErMin= 1 ErrMin= 4.38D-02
 ErrMax= 4.38D-02  0.00D+00 EMaxC= 1.00D-01 BMatC= 2.75D+00 BMatP= 2.75D+00
 IDIUse=3 WtCom= 5.62D-01 WtEn= 4.38D-01
 Coeff-Com:  0.100D+01
 Coeff-En:   0.100D+01
 Coeff:      0.100D+01
 Gap=     0.280 Goal=   None    Shift=    0.000
 Gap=     0.280 Goal=   None    Shift=    0.000
 GapD=    0.280 DampG=1.000 DampE=0.500 DampFc=0.5000 IDamp=-1.
 Damping current iteration by 5.00D-01
 RMSDP=3.96D-03 MaxDP=2.70D-01              OVMax= 2.80D-01

 Cycle   2  Pass 0  IDiag  1:
 RMSU=  1.92D-03    CP:  9.73D-01
 E= -1413.37122858169     Delta-E=       -0.176790808604 Rises=F Damp=T
 DIIS: error= 1.27D-02 at cycle   2 NSaved=   2.
 NSaved= 2 IEnMin= 2 EnMin= -1413.37122858169     IErMin= 2 ErrMin= 1.27D-02
 ErrMax= 1.27D-02  0.00D+00 EMaxC= 1.00D-01 BMatC= 4.39D-01 BMatP= 2.75D+00
 IDIUse=3 WtCom= 8.73D-01 WtEn= 1.27D-01
 Coeff-Com: -0.275D+00 0.128D+01
 Coeff-En:   0.000D+00 0.100D+01
 Coeff:     -0.240D+00 0.124D+01
 Gap=     0.329 Goal=   None    Shift=    0.000
 Gap=     0.329 Goal=   None    Shift=    0.000
 RMSDP=1.48D-03 MaxDP=5.11D-02 DE=-1.77D-01 OVMax= 1.70D-01

 Cycle   3  Pass 0  IDiag  1:
 RMSU=  1.41D-03    CP:  9.61D-01  1.21D+00
 E= -1413.52650059271     Delta-E=       -0.155272011017 Rises=F Damp=F
 DIIS: error= 7.39D-03 at cycle   3 NSaved=   3.
 NSaved= 3 IEnMin= 3 EnMin= -1413.52650059271     IErMin= 3 ErrMin= 7.39D-03
 ErrMax= 7.39D-03  0.00D+00 EMaxC= 1.00D-01 BMatC= 1.50D-01 BMatP= 4.39D-01
 IDIUse=3 WtCom= 9.26D-01 WtEn= 7.39D-02
 Coeff-Com: -0.228D+00 0.550D+00 0.678D+00
 Coeff-En:   0.000D+00 0.000D+00 0.100D+01
 Coeff:     -0.211D+00 0.509D+00 0.702D+00
 Gap=     0.240 Goal=   None    Shift=    0.000
 Gap=     0.240 Goal=   None    Shift=    0.000
 RMSDP=9.08D-04 MaxDP=5.48D-02 DE=-1.55D-01 OVMax= 8.96D-02

 Cycle   4  Pass 0  IDiag  1:
 RMSU=  5.89D-04    CP:  9.48D-01  1.49D+00  7.26D-01
 E= -1413.56412749692     Delta-E=       -0.037626904216 Rises=F Damp=F
 DIIS: error= 2.02D-03 at cycle   4 NSaved=   4.
 NSaved= 4 IEnMin= 4 EnMin= -1413.56412749692     IErMin= 4 ErrMin= 2.02D-03
 ErrMax= 2.02D-03  0.00D+00 EMaxC= 1.00D-01 BMatC= 1.13D-02 BMatP= 1.50D-01
 IDIUse=3 WtCom= 9.80D-01 WtEn= 2.02D-02
 Coeff-Com: -0.629D-01 0.122D+00 0.292D+00 0.649D+00
 Coeff-En:   0.000D+00 0.000D+00 0.000D+00 0.100D+01
 Coeff:     -0.617D-01 0.120D+00 0.286D+00 0.656D+00
 Gap=     0.222 Goal=   None    Shift=    0.000
 Gap=     0.222 Goal=   None    Shift=    0.000
 RMSDP=2.13D-04 MaxDP=1.07D-02 DE=-3.76D-02 OVMax= 1.69D-02

 Cycle   5  Pass 0  IDiag  1:
 RMSU=  1.38D-04    CP:  9.49D-01  1.48D+00  8.23D-01  8.55D-01
 E= -1413.56764959390     Delta-E=       -0.003522096972 Rises=F Damp=F
 DIIS: error= 6.27D-04 at cycle   5 NSaved=   5.
 NSaved= 5 IEnMin= 5 EnMin= -1413.56764959390     IErMin= 5 ErrMin= 6.27D-04
 ErrMax= 6.27D-04  0.00D+00 EMaxC= 1.00D-01 BMatC= 6.64D-04 BMatP= 1.13D-02
 IDIUse=3 WtCom= 9.94D-01 WtEn= 6.27D-03
 Coeff-Com: -0.624D-02 0.625D-02 0.571D-01 0.212D+00 0.731D+00
 Coeff-En:   0.000D+00 0.000D+00 0.000D+00 0.000D+00 0.100D+01
 Coeff:     -0.620D-02 0.621D-02 0.567D-01 0.211D+00 0.732D+00
 Gap=     0.224 Goal=   None    Shift=    0.000
 Gap=     0.224 Goal=   None    Shift=    0.000
 RMSDP=9.62D-05 MaxDP=3.02D-03 DE=-3.52D-03 OVMax= 2.08D-02

 Cycle   6  Pass 0  IDiag  1:
 RMSU=  6.70D-05    CP:  9.48D-01  1.49D+00  8.34D-01  9.38D-01  1.26D+00
 E= -1413.56828837665     Delta-E=       -0.000638782757 Rises=F Damp=F
 DIIS: error= 4.58D-04 at cycle   6 NSaved=   6.
 NSaved= 6 IEnMin= 6 EnMin= -1413.56828837665     IErMin= 6 ErrMin= 4.58D-04
 ErrMax= 4.58D-04  0.00D+00 EMaxC= 1.00D-01 BMatC= 2.39D-04 BMatP= 6.64D-04
 IDIUse=3 WtCom= 9.95D-01 WtEn= 4.58D-03
 Coeff-Com:  0.191D-01-0.385D-01-0.733D-01-0.143D+00 0.259D+00 0.977D+00
 Coeff-En:   0.000D+00 0.000D+00 0.000D+00 0.000D+00 0.000D+00 0.100D+01
 Coeff:      0.190D-01-0.383D-01-0.730D-01-0.142D+00 0.257D+00 0.977D+00
 Gap=     0.226 Goal=   None    Shift=    0.000
 Gap=     0.226 Goal=   None    Shift=    0.000
 RMSDP=1.07D-04 MaxDP=4.15D-03 DE=-6.39D-04 OVMax= 2.68D-02

 Cycle   7  Pass 0  IDiag  1:
 RMSU=  3.73D-05    CP:  9.47D-01  1.50D+00  8.46D-01  1.01D+00  1.80D+00
                    CP:  1.62D+00
 E= -1413.56882000966     Delta-E=       -0.000531633011 Rises=F Damp=F
 DIIS: error= 3.17D-04 at cycle   7 NSaved=   7.
 NSaved= 7 IEnMin= 7 EnMin= -1413.56882000966     IErMin= 7 ErrMin= 3.17D-04
 ErrMax= 3.17D-04  0.00D+00 EMaxC= 1.00D-01 BMatC= 9.06D-05 BMatP= 2.39D-04
 IDIUse=3 WtCom= 9.97D-01 WtEn= 3.17D-03
 Coeff-Com:  0.639D-02-0.114D-01-0.313D-01-0.848D-01-0.506D-01 0.357D+00
 Coeff-Com:  0.815D+00
 Coeff-En:   0.000D+00 0.000D+00 0.000D+00 0.000D+00 0.000D+00 0.000D+00
 Coeff-En:   0.100D+01
 Coeff:      0.637D-02-0.113D-01-0.312D-01-0.846D-01-0.504D-01 0.356D+00
 Coeff:      0.816D+00
 Gap=     0.227 Goal=   None    Shift=    0.000
 Gap=     0.227 Goal=   None    Shift=    0.000
 RMSDP=6.27D-05 MaxDP=3.04D-03 DE=-5.32D-04 OVMax= 1.67D-02

 Cycle   8  Pass 0  IDiag  1:
 RMSU=  1.75D-05    CP:  9.47D-01  1.51D+00  8.48D-01  1.04D+00  2.07D+00
                    CP:  2.19D+00  1.57D+00
 E= -1413.56904651071     Delta-E=       -0.000226501045 Rises=F Damp=F
 DIIS: error= 2.52D-04 at cycle   8 NSaved=   8.
 NSaved= 8 IEnMin= 8 EnMin= -1413.56904651071     IErMin= 8 ErrMin= 2.52D-04
 ErrMax= 2.52D-04  0.00D+00 EMaxC= 1.00D-01 BMatC= 5.16D-05 BMatP= 9.06D-05
 IDIUse=3 WtCom= 9.97D-01 WtEn= 2.52D-03
 Coeff-Com: -0.110D-01 0.227D-01 0.387D-01 0.618D-01-0.199D+00-0.509D+00
 Coeff-Com:  0.336D+00 0.126D+01
 Coeff-En:   0.000D+00 0.000D+00 0.000D+00 0.000D+00 0.000D+00 0.000D+00
 Coeff-En:   0.000D+00 0.100D+01
 Coeff:     -0.110D-01 0.226D-01 0.386D-01 0.617D-01-0.198D+00-0.508D+00
 Coeff:      0.335D+00 0.126D+01
 Gap=     0.227 Goal=   None    Shift=    0.000
 Gap=     0.227 Goal=   None    Shift=    0.000
 RMSDP=9.40D-05 MaxDP=5.04D-03 DE=-2.27D-04 OVMax= 2.59D-02

 Cycle   9  Pass 0  IDiag  1:
 RMSU=  1.53D-05    CP:  9.47D-01  1.51D+00  8.48D-01  1.08D+00  2.45D+00
                    CP:  2.99D+00  2.79D+00  1.91D+00
 E= -1413.56928427148     Delta-E=       -0.000237760768 Rises=F Damp=F
 DIIS: error= 1.37D-04 at cycle   9 NSaved=   9.
 NSaved= 9 IEnMin= 9 EnMin= -1413.56928427148     IErMin= 9 ErrMin= 1.37D-04
 ErrMax= 1.37D-04  0.00D+00 EMaxC= 1.00D-01 BMatC= 2.10D-05 BMatP= 5.16D-05
 IDIUse=3 WtCom= 9.99D-01 WtEn= 1.37D-03
 Coeff-Com: -0.820D-02 0.158D-01 0.346D-01 0.751D-01-0.556D-01-0.424D+00
 Coeff-Com: -0.295D+00 0.596D+00 0.106D+01
 Coeff-En:   0.000D+00 0.000D+00 0.000D+00 0.000D+00 0.000D+00 0.000D+00
 Coeff-En:   0.000D+00 0.000D+00 0.100D+01
 Coeff:     -0.819D-02 0.158D-01 0.345D-01 0.750D-01-0.556D-01-0.424D+00
 Coeff:     -0.295D+00 0.595D+00 0.106D+01
 Gap=     0.227 Goal=   None    Shift=    0.000
 Gap=     0.227 Goal=   None    Shift=    0.000
 RMSDP=7.39D-05 MaxDP=4.22D-03 DE=-2.38D-04 OVMax= 2.05D-02

 Cycle  10  Pass 0  IDiag  1:
 RMSU=  5.11D-05    CP:  9.47D-01  1.52D+00  8.48D-01  1.11D+00  2.74D+00
                    CP:  3.00D+00  3.00D+00  3.00D+00  1.69D+00
 E= -1413.56938324151     Delta-E=       -0.000098970035 Rises=F Damp=F
 DIIS: error= 6.70D-05 at cycle  10 NSaved=  10.
 NSaved=10 IEnMin=10 EnMin= -1413.56938324151     IErMin=10 ErrMin= 6.70D-05
 ErrMax= 6.70D-05  0.00D+00 EMaxC= 1.00D-01 BMatC= 4.63D-06 BMatP= 2.10D-05
 IDIUse=1 WtCom= 1.00D+00 WtEn= 0.00D+00
 Coeff-Com:  0.218D-02-0.472D-02-0.569D-02-0.218D-02 0.681D-01 0.816D-01
 Coeff-Com: -0.249D+00-0.299D+00 0.278D+00 0.113D+01
 Coeff:      0.218D-02-0.472D-02-0.569D-02-0.218D-02 0.681D-01 0.816D-01
 Coeff:     -0.249D+00-0.299D+00 0.278D+00 0.113D+01
 Gap=     0.227 Goal=   None    Shift=    0.000
 Gap=     0.227 Goal=   None    Shift=    0.000
 RMSDP=4.15D-05 MaxDP=2.52D-03 DE=-9.90D-05 OVMax= 1.16D-02

 Cycle  11  Pass 0  IDiag  1:
 RMSU=  1.36D-05    CP:  9.47D-01  1.52D+00  8.47D-01  1.12D+00  2.88D+00
                    CP:  3.00D+00  3.00D+00  3.00D+00  2.38D+00  1.60D+00
 E= -1413.56940445287     Delta-E=       -0.000021211355 Rises=F Damp=F
 DIIS: error= 1.82D-05 at cycle  11 NSaved=  11.
 NSaved=11 IEnMin=11 EnMin= -1413.56940445287     IErMin=11 ErrMin= 1.82D-05
 ErrMax= 1.82D-05  0.00D+00 EMaxC= 1.00D-01 BMatC= 8.38D-07 BMatP= 4.63D-06
 IDIUse=1 WtCom= 1.00D+00 WtEn= 0.00D+00
 Coeff-Com:  0.231D-02-0.462D-02-0.832D-02-0.143D-01 0.371D-01 0.109D+00
 Coeff-Com: -0.479D-01-0.207D+00-0.927D-01 0.419D+00 0.808D+00
 Coeff:      0.231D-02-0.462D-02-0.832D-02-0.143D-01 0.371D-01 0.109D+00
 Coeff:     -0.479D-01-0.207D+00-0.927D-01 0.419D+00 0.808D+00
 Gap=     0.227 Goal=   None    Shift=    0.000
 Gap=     0.227 Goal=   None    Shift=    0.000
 RMSDP=8.54D-06 MaxDP=5.38D-04 DE=-2.12D-05 OVMax= 2.30D-03

 Initial convergence to 1.0D-05 achieved.  Increase integral accuracy.
 Cycle  12  Pass 1  IDiag  1:
 E= -1413.56934561039     Delta-E=        0.000058842478 Rises=F Damp=F
 DIIS: error= 1.61D-04 at cycle   1 NSaved=   1.
 NSaved= 1 IEnMin= 1 EnMin= -1413.56934561039     IErMin= 1 ErrMin= 1.61D-04
 ErrMax= 1.61D-04  0.00D+00 EMaxC= 1.00D-01 BMatC= 1.19D-05 BMatP= 1.19D-05
 IDIUse=3 WtCom= 9.98D-01 WtEn= 1.61D-03
 Coeff-Com:  0.100D+01
 Coeff-En:   0.100D+01
 Coeff:      0.100D+01
 Gap=     0.227 Goal=   None    Shift=    0.000
 Gap=     0.227 Goal=   None    Shift=    0.000
 RMSDP=8.54D-06 MaxDP=5.38D-04 DE= 5.88D-05 OVMax= 1.96D-04

 Cycle  13  Pass 1  IDiag  1:
 RMSU=  1.16D-04    CP:  1.00D+00
 E= -1413.56934845883     Delta-E=       -0.000002848441 Rises=F Damp=F
 DIIS: error= 5.89D-06 at cycle   2 NSaved=   2.
 NSaved= 2 IEnMin= 2 EnMin= -1413.56934845883     IErMin= 2 ErrMin= 5.89D-06
 ErrMax= 5.89D-06  0.00D+00 EMaxC= 1.00D-01 BMatC= 1.57D-07 BMatP= 1.19D-05
 IDIUse=1 WtCom= 1.00D+00 WtEn= 0.00D+00
 Coeff-Com: -0.275D-01 0.103D+01
 Coeff:     -0.275D-01 0.103D+01
 Gap=     0.227 Goal=   None    Shift=    0.000
 Gap=     0.227 Goal=   None    Shift=    0.000
 RMSDP=6.70D-06 MaxDP=2.24D-04 DE=-2.85D-06 OVMax= 8.66D-05

 Cycle  14  Pass 1  IDiag  1:
 RMSU=  2.30D-06    CP:  1.00D+00  1.05D+00
 E= -1413.56934847963     Delta-E=       -0.000000020803 Rises=F Damp=F
 DIIS: error= 5.04D-06 at cycle   3 NSaved=   3.
 NSaved= 3 IEnMin= 3 EnMin= -1413.56934847963     IErMin= 3 ErrMin= 5.04D-06
 ErrMax= 5.04D-06  0.00D+00 EMaxC= 1.00D-01 BMatC= 1.63D-07 BMatP= 1.57D-07
 IDIUse=1 WtCom= 1.00D+00 WtEn= 0.00D+00
 Coeff-Com: -0.257D-01 0.534D+00 0.492D+00
 Coeff:     -0.257D-01 0.534D+00 0.492D+00
 Gap=     0.227 Goal=   None    Shift=    0.000
 Gap=     0.227 Goal=   None    Shift=    0.000
 RMSDP=6.79D-07 MaxDP=2.85D-05 DE=-2.08D-08 OVMax= 5.17D-05

 Cycle  15  Pass 1  IDiag  1:
 RMSU=  6.15D-07    CP:  1.00D+00  1.06D+00  9.03D-01
 E= -1413.56934852159     Delta-E=       -0.000000041962 Rises=F Damp=F
 DIIS: error= 1.53D-06 at cycle   4 NSaved=   4.
 NSaved= 4 IEnMin= 4 EnMin= -1413.56934852159     IErMin= 4 ErrMin= 1.53D-06
 ErrMax= 1.53D-06  0.00D+00 EMaxC= 1.00D-01 BMatC= 4.52D-09 BMatP= 1.57D-07
 IDIUse=1 WtCom= 1.00D+00 WtEn= 0.00D+00
 Coeff-Com: -0.261D-02 0.173D-01 0.101D+00 0.884D+00
 Coeff:     -0.261D-02 0.173D-01 0.101D+00 0.884D+00
 Gap=     0.227 Goal=   None    Shift=    0.000
 Gap=     0.227 Goal=   None    Shift=    0.000
 RMSDP=2.98D-07 MaxDP=1.10D-05 DE=-4.20D-08 OVMax= 4.55D-05

 Cycle  16  Pass 1  IDiag  1:
 RMSU=  2.11D-07    CP:  1.00D+00  1.06D+00  9.81D-01  1.09D+00
 E= -1413.56934852584     Delta-E=       -0.000000004251 Rises=F Damp=F
 DIIS: error= 8.32D-07 at cycle   5 NSaved=   5.
 NSaved= 5 IEnMin= 5 EnMin= -1413.56934852584     IErMin= 5 ErrMin= 8.32D-07
 ErrMax= 8.32D-07  0.00D+00 EMaxC= 1.00D-01 BMatC= 1.62D-09 BMatP= 4.52D-09
 IDIUse=1 WtCom= 1.00D+00 WtEn= 0.00D+00
 Coeff-Com:  0.355D-02-0.890D-01-0.421D-01 0.343D+00 0.785D+00
 Coeff:      0.355D-02-0.890D-01-0.421D-01 0.343D+00 0.785D+00
 Gap=     0.227 Goal=   None    Shift=    0.000
 Gap=     0.227 Goal=   None    Shift=    0.000
 RMSDP=1.79D-07 MaxDP=8.78D-06 DE=-4.25D-09 OVMax= 3.82D-05

 Cycle  17  Pass 1  IDiag  1:
 RMSU=  1.17D-07    CP:  1.00D+00  1.06D+00  1.01D+00  1.20D+00  1.48D+00
 E= -1413.56934852798     Delta-E=       -0.000000002135 Rises=F Damp=F
 DIIS: error= 6.43D-07 at cycle   6 NSaved=   6.
 NSaved= 6 IEnMin= 6 EnMin= -1413.56934852798     IErMin= 6 ErrMin= 6.43D-07
 ErrMax= 6.43D-07  0.00D+00 EMaxC= 1.00D-01 BMatC= 6.52D-10 BMatP= 1.62D-09
 IDIUse=1 WtCom= 1.00D+00 WtEn= 0.00D+00
 Coeff-Com:  0.228D-02-0.449D-01-0.420D-01-0.940D-01 0.357D+00 0.822D+00
 Coeff:      0.228D-02-0.449D-01-0.420D-01-0.940D-01 0.357D+00 0.822D+00
 Gap=     0.227 Goal=   None    Shift=    0.000
 Gap=     0.227 Goal=   None    Shift=    0.000
 RMSDP=1.44D-07 MaxDP=8.06D-06 DE=-2.13D-09 OVMax= 3.55D-05

 Cycle  18  Pass 1  IDiag  1:
 RMSU=  5.94D-08    CP:  1.00D+00  1.06D+00  1.02D+00  1.25D+00  2.01D+00
                    CP:  1.49D+00
 E= -1413.56934852914     Delta-E=       -0.000000001163 Rises=F Damp=F
 DIIS: error= 4.98D-07 at cycle   7 NSaved=   7.
 NSaved= 7 IEnMin= 7 EnMin= -1413.56934852914     IErMin= 7 ErrMin= 4.98D-07
 ErrMax= 4.98D-07  0.00D+00 EMaxC= 1.00D-01 BMatC= 2.38D-10 BMatP= 6.52D-10
 IDIUse=1 WtCom= 1.00D+00 WtEn= 0.00D+00
 Coeff-Com: -0.886D-03 0.267D-01 0.891D-02-0.204D+00-0.256D+00 0.267D+00
 Coeff-Com:  0.116D+01
 Coeff:     -0.886D-03 0.267D-01 0.891D-02-0.204D+00-0.256D+00 0.267D+00
 Coeff:      0.116D+01
 Gap=     0.227 Goal=   None    Shift=    0.000
 Gap=     0.227 Goal=   None    Shift=    0.000
 RMSDP=1.69D-07 MaxDP=9.70D-06 DE=-1.16D-09 OVMax= 4.48D-05

 Cycle  19  Pass 1  IDiag  1:
 RMSU=  4.51D-08    CP:  1.00D+00  1.06D+00  1.02D+00  1.30D+00  2.58D+00
                    CP:  2.24D+00  1.87D+00
 E= -1413.56934853008     Delta-E=       -0.000000000933 Rises=F Damp=F
 DIIS: error= 3.15D-07 at cycle   8 NSaved=   8.
 NSaved= 8 IEnMin= 8 EnMin= -1413.56934853008     IErMin= 8 ErrMin= 3.15D-07
 ErrMax= 3.15D-07  0.00D+00 EMaxC= 1.00D-01 BMatC= 8.60D-11 BMatP= 2.38D-10
 IDIUse=1 WtCom= 1.00D+00 WtEn= 0.00D+00
 Coeff-Com: -0.931D-03 0.216D-01 0.152D-01-0.413D-01-0.191D+00-0.146D+00
 Coeff-Com:  0.407D+00 0.935D+00
 Coeff:     -0.931D-03 0.216D-01 0.152D-01-0.413D-01-0.191D+00-0.146D+00
 Coeff:      0.407D+00 0.935D+00
 Gap=     0.227 Goal=   None    Shift=    0.000
 Gap=     0.227 Goal=   None    Shift=    0.000
 RMSDP=9.72D-08 MaxDP=5.53D-06 DE=-9.33D-10 OVMax= 2.66D-05

 Cycle  20  Pass 1  IDiag  1:
 RMSU=  1.85D-08    CP:  1.00D+00  1.06D+00  1.03D+00  1.32D+00  2.86D+00
                    CP:  2.64D+00  2.63D+00  1.69D+00
 E= -1413.56934853032     Delta-E=       -0.000000000248 Rises=F Damp=F
 DIIS: error= 2.04D-07 at cycle   9 NSaved=   9.
 NSaved= 9 IEnMin= 9 EnMin= -1413.56934853032     IErMin= 9 ErrMin= 2.04D-07
 ErrMax= 2.04D-07  0.00D+00 EMaxC= 1.00D-01 BMatC= 3.32D-11 BMatP= 8.60D-11
 IDIUse=1 WtCom= 1.00D+00 WtEn= 0.00D+00
 Coeff-Com:  0.448D-03-0.143D-01-0.504D-02 0.124D+00 0.129D+00-0.186D+00
 Coeff-Com: -0.648D+00 0.351D-01 0.157D+01
 Coeff:      0.448D-03-0.143D-01-0.504D-02 0.124D+00 0.129D+00-0.186D+00
 Coeff:     -0.648D+00 0.351D-01 0.157D+01
 Gap=     0.227 Goal=   None    Shift=    0.000
 Gap=     0.227 Goal=   None    Shift=    0.000
 RMSDP=1.18D-07 MaxDP=6.58D-06 DE=-2.48D-10 OVMax= 3.26D-05

 Cycle  21  Pass 1  IDiag  1:
 RMSU=  5.26D-08    CP:  1.00D+00  1.06D+00  1.03D+00  1.36D+00  3.00D+00
                    CP:  3.00D+00  3.00D+00  2.85D+00  2.16D+00
 E= -1413.56934853059     Delta-E=       -0.000000000269 Rises=F Damp=F
 DIIS: error= 7.14D-08 at cycle  10 NSaved=  10.
 NSaved=10 IEnMin=10 EnMin= -1413.56934853059     IErMin=10 ErrMin= 7.14D-08
 ErrMax= 7.14D-08  0.00D+00 EMaxC= 1.00D-01 BMatC= 7.32D-12 BMatP= 3.32D-11
 IDIUse=1 WtCom= 1.00D+00 WtEn= 0.00D+00
 Coeff-Com:  0.358D-03-0.926D-02-0.617D-02 0.432D-01 0.784D-01-0.703D-02
 Coeff-Com: -0.257D+00-0.253D+00 0.382D+00 0.103D+01
 Coeff:      0.358D-03-0.926D-02-0.617D-02 0.432D-01 0.784D-01-0.703D-02
 Coeff:     -0.257D+00-0.253D+00 0.382D+00 0.103D+01
 Gap=     0.227 Goal=   None    Shift=    0.000
 Gap=     0.227 Goal=   None    Shift=    0.000
 RMSDP=4.53D-08 MaxDP=2.48D-06 DE=-2.69D-10 OVMax= 1.24D-05

 Cycle  22  Pass 1  IDiag  1:
 RMSU=  1.94D-08    CP:  1.00D+00  1.06D+00  1.03D+00  1.37D+00  3.00D+00
                    CP:  3.00D+00  3.00D+00  3.00D+00  2.81D+00  1.66D+00
 E= -1413.56934853064     Delta-E=       -0.000000000052 Rises=F Damp=F
 DIIS: error= 2.10D-08 at cycle  11 NSaved=  11.
 NSaved=11 IEnMin=11 EnMin= -1413.56934853064     IErMin=11 ErrMin= 2.10D-08
 ErrMax= 2.10D-08  0.00D+00 EMaxC= 1.00D-01 BMatC= 1.62D-12 BMatP= 7.32D-12
 IDIUse=1 WtCom= 1.00D+00 WtEn= 0.00D+00
 Coeff-Com: -0.547D-05 0.934D-03-0.105D-02-0.189D-01-0.126D-01 0.481D-01
 Coeff-Com:  0.101D+00-0.907D-01-0.312D+00 0.322D+00 0.962D+00
 Coeff:     -0.547D-05 0.934D-03-0.105D-02-0.189D-01-0.126D-01 0.481D-01
 Coeff:      0.101D+00-0.907D-01-0.312D+00 0.322D+00 0.962D+00
 Gap=     0.227 Goal=   None    Shift=    0.000
 Gap=     0.227 Goal=   None    Shift=    0.000
 RMSDP=1.62D-08 MaxDP=8.91D-07 DE=-5.18D-11 OVMax= 4.32D-06

 Cycle  23  Pass 1  IDiag  1:
 RMSU=  4.71D-09    CP:  1.00D+00  1.06D+00  1.03D+00  1.37D+00  3.00D+00
                    CP:  3.00D+00  3.00D+00  3.00D+00  3.00D+00  1.90D+00
                    CP:  1.39D+00
 E= -1413.56934853059     Delta-E=        0.000000000057 Rises=F Damp=F
 DIIS: error= 8.60D-09 at cycle  12 NSaved=  12.
 NSaved=12 IEnMin=11 EnMin= -1413.56934853064     IErMin=12 ErrMin= 8.60D-09
 ErrMax= 8.60D-09  0.00D+00 EMaxC= 1.00D-01 BMatC= 1.98D-13 BMatP= 1.62D-12
 IDIUse=1 WtCom= 1.00D+00 WtEn= 0.00D+00
 Coeff-Com: -0.481D-04 0.148D-02 0.329D-03-0.107D-01-0.146D-01 0.157D-01
 Coeff-Com:  0.624D-01 0.697D-02-0.138D+00-0.411D-01 0.277D+00 0.840D+00
 Coeff:     -0.481D-04 0.148D-02 0.329D-03-0.107D-01-0.146D-01 0.157D-01
 Coeff:      0.624D-01 0.697D-02-0.138D+00-0.411D-01 0.277D+00 0.840D+00
 Gap=     0.227 Goal=   None    Shift=    0.000
 Gap=     0.227 Goal=   None    Shift=    0.000
 RMSDP=2.80D-09 MaxDP=1.33D-07 DE= 5.73D-11 OVMax= 5.90D-07

 SCF Done:  E(UwB97XD) =  -1413.56934853     A.U. after   23 cycles
            NFock= 23  Conv=0.28D-08     -V/T= 2.0077
 <Sx>= 0.0000 <Sy>= 0.0000 <Sz>= 0.0000 <S**2>=-0.0000 S=-0.0000
 <L.S>=  0.00000000000    
 KE= 1.402731486809D+03 PE=-7.269549477966D+03 EE= 2.471591587065D+03
 Annihilation of the first spin contaminant:
 S**2 before annihilation    -0.0000,   after     0.0000
 Leave Link  502 at Thu Oct  9 17:56:21 2025, MaxMem=  5368709120 cpu:             792.8 elap:              87.4
 (Enter /prod/precompiled/gaussian/16c2/g16/l508.exe)
 QCSCF skips out because SCF is already converged.
 Leave Link  508 at Thu Oct  9 17:56:21 2025, MaxMem=  5368709120 cpu:               0.1 elap:               0.1
 (Enter /prod/precompiled/gaussian/16c2/g16/l801.exe)
 DoSCS=F DFT=T ScalE2(SS,OS)=  1.000000  1.000000
 Range of M.O.s used for correlation:     1   431
 NBasis=   431 NAE=    88 NBE=    88 NFC=     0 NFV=     0
 NROrb=    431 NOA=    88 NOB=    88 NVA=   343 NVB=   343

 **** Warning!!: The largest alpha MO coefficient is  0.12686544D+02


 **** Warning!!: The largest beta MO coefficient is  0.12686544D+02

 Leave Link  801 at Thu Oct  9 17:56:21 2025, MaxMem=  5368709120 cpu:               0.1 elap:               0.1
 (Enter /prod/precompiled/gaussian/16c2/g16/l1101.exe)
 Using compressed storage, NAtomX=    44.
 Will process     45 centers per pass.
   1 Symmetry operations used in ECPInt.
 ECPInt:  NShTT=   20706 NPrTT=   75450 LenC2=   17395 LenP2D=   42967.
 LDataN:  DoStor=T MaxTD1= 5 Len=  102
 R6Disp: Adding Grimme-D2 dispersion energy 1st derivatives to the gradient.
 Leave Link 1101 at Thu Oct  9 17:56:22 2025, MaxMem=  5368709120 cpu:               4.9 elap:               1.1
 (Enter /prod/precompiled/gaussian/16c2/g16/l1102.exe)
 Symmetrizing basis deriv contribution to polar:
 IMax=3 JMax=2 DiffMx= 0.00D+00
 Leave Link 1102 at Thu Oct  9 17:56:22 2025, MaxMem=  5368709120 cpu:               0.1 elap:               0.1
 (Enter /prod/precompiled/gaussian/16c2/g16/l1110.exe)
 Forming Gx(P) for the SCF density, NAtomX=    44.
 Integral derivatives from FoFJK, PRISM(SPDF).
 Do as many integral derivatives as possible in FoFJK.
 G2DrvN: MDV=    5368704452.
 G2DrvN: will do    45 centers at a time, making    1 passes.
 Calling FoFCou, ICntrl=  3107 FMM=F I1Cent=   0 AccDes= 0.00D+00.
 FoFJK:  IHMeth= 1 ICntrl=    3107 DoSepK=T KAlg= 0 I1Cent=           0 FoldK=F
 IRaf=         1 NMat=       1 IRICut=       1 DoRegI=T DoRafI=F ISym2E= 0 IDoP0=0 IntGTp=1.
 FoFCou: FMM=F IPFlag=           0 FMFlag=      100000 FMFlg1=         800
         NFxFlg=           0 DoJE=F BraDBF=F KetDBF=F FulRan=T
         wScrn=  0.000000 ICntrl=      3507 IOpCl=  0 I1Cent=           0 NGrid=           0
         NMat0=    1 NMatS0=      1 NMatT0=    0 NMatD0=    1 NMtDS0=    0 NMtDT0=    0
 Symmetry not used in FoFCou.
 End of G2Drv F.D. properties file   721 does not exist.
 End of G2Drv F.D. properties file   722 does not exist.
 End of G2Drv F.D. properties file   788 does not exist.
 Leave Link 1110 at Thu Oct  9 17:58:58 2025, MaxMem=  5368709120 cpu:            1575.4 elap:             155.8
 (Enter /prod/precompiled/gaussian/16c2/g16/l1002.exe)
 Minotr:  UHF open shell wavefunction.
          IDoAtm=11111111111111111111111111111111111111111111
          Direct CPHF calculation.
          Differentiating once with respect to electric field.
                with respect to dipole field.
          Differentiating once with respect to nuclear coordinates.
          Requested convergence is 1.0D-08 RMS, and 1.0D-07 maximum.
          Secondary convergence is 1.0D-12 RMS, and 1.0D-12 maximum.
          NewPWx=T KeepS1=F KeepF1=F KeepIn=T MapXYZ=F SortEE=F KeepMc=T.
        13421 words used for storage of precomputed grid.
 Two-electron integral symmetry not used.
          MDV=    5368709120 using IRadAn=       1.
          Solving linear equations simultaneously, MaxMat=     384.
 FoF2E skips out because all densities are zero.
 CalDSu exits because no D1Ps are significant.
 FoFJK:  IHMeth= 1 ICntrl=       0 DoSepK=T KAlg= 0 I1Cent=           0 FoldK=F
 IRaf=         1 NMat=     132 IRICut=       1 DoRegI=T DoRafI=F ISym2E= 0 IDoP0=3 IntGTp=3.
 FoFCou: FMM=F IPFlag=           0 FMFlag=      100000 FMFlg1=         800
         NFxFlg=           0 DoJE=F BraDBF=F KetDBF=F FulRan=T
         wScrn=  0.000000 ICntrl=       500 IOpCl=  0 I1Cent=           0 NGrid=           0
         NMat0=  132 NMatS0=    132 NMatT0=    0 NMatD0=  132 NMtDS0=    0 NMtDT0=    0
 Symmetry not used in FoFCou.
          There are   135 degrees of freedom in the 1st order CPHF.  IDoFFX=6 NUNeed=     3.
    132 vectors produced by pass  0 Test12= 6.04D-14 1.00D-09 XBig12= 3.46D+02 4.69D+00.
 AX will form   132 AO Fock derivatives at one time.
    132 vectors produced by pass  1 Test12= 6.04D-14 1.00D-09 XBig12= 3.18D+01 3.80D-01.
    132 vectors produced by pass  2 Test12= 6.04D-14 1.00D-09 XBig12= 1.19D+00 8.97D-02.
    132 vectors produced by pass  3 Test12= 6.04D-14 1.00D-09 XBig12= 2.15D-02 9.65D-03.
    132 vectors produced by pass  4 Test12= 6.04D-14 1.00D-09 XBig12= 1.63D-04 6.28D-04.
    132 vectors produced by pass  5 Test12= 6.04D-14 1.00D-09 XBig12= 9.59D-07 4.63D-05.
    110 vectors produced by pass  6 Test12= 6.04D-14 1.00D-09 XBig12= 5.35D-09 3.16D-06.
     50 vectors produced by pass  7 Test12= 6.04D-14 1.00D-09 XBig12= 2.68D-11 2.21D-07.
      3 vectors produced by pass  8 Test12= 6.04D-14 1.00D-09 XBig12= 1.20D-13 1.43D-08.
      1 vectors produced by pass  9 Test12= 6.04D-14 1.00D-09 XBig12= 5.67D-16 1.05D-09.
 InvSVY:  IOpt=1 It=  1 EMax= 3.55D-15
 Solved reduced A of dimension   956 with   135 vectors.
 FullF1:  Do perturbations      1 to       3.
 Isotropic polarizability for W=    0.000000      243.45 Bohr**3.
 End of Minotr F.D. properties file   721 does not exist.
 End of Minotr F.D. properties file   722 does not exist.
 End of Minotr F.D. properties file   788 does not exist.
 Leave Link 1002 at Thu Oct  9 18:06:04 2025, MaxMem=  5368709120 cpu:            4459.5 elap:             425.8
 (Enter /prod/precompiled/gaussian/16c2/g16/l601.exe)
 Copying SCF densities to generalized density rwf, IOpCl= 1 IROHF=0.

 **********************************************************************

            Population analysis using the SCF Density.

 **********************************************************************

 Alpha  occ. eigenvalues -- -101.69606 -19.25640 -14.50508 -14.47114 -14.46336
 Alpha  occ. eigenvalues --  -14.42384 -10.37935 -10.37630 -10.37411 -10.35778
 Alpha  occ. eigenvalues --  -10.33567 -10.32647 -10.32630 -10.32312 -10.32218
 Alpha  occ. eigenvalues --  -10.32114 -10.31395 -10.31174 -10.31127 -10.30936
 Alpha  occ. eigenvalues --  -10.29672 -10.28499 -10.28125  -9.60389  -7.35768
 Alpha  occ. eigenvalues --   -7.34797  -7.34779  -1.11483  -1.11242  -1.04688
 Alpha  occ. eigenvalues --   -0.99741  -0.98935  -0.96725  -0.95133  -0.90186
 Alpha  occ. eigenvalues --   -0.86963  -0.85508  -0.84761  -0.84072  -0.79590
 Alpha  occ. eigenvalues --   -0.79355  -0.77292  -0.72554  -0.72459  -0.71803
 Alpha  occ. eigenvalues --   -0.69022  -0.67831  -0.67237  -0.63976  -0.62876
 Alpha  occ. eigenvalues --   -0.62391  -0.60225  -0.58597  -0.57401  -0.56353
 Alpha  occ. eigenvalues --   -0.55712  -0.55221  -0.54501  -0.53926  -0.53471
 Alpha  occ. eigenvalues --   -0.52651  -0.51887  -0.51333  -0.50692  -0.50128
 Alpha  occ. eigenvalues --   -0.49051  -0.48601  -0.47263  -0.46883  -0.46702
 Alpha  occ. eigenvalues --   -0.45881  -0.45231  -0.44300  -0.44212  -0.43763
 Alpha  occ. eigenvalues --   -0.42493  -0.42376  -0.41489  -0.41416  -0.40712
 Alpha  occ. eigenvalues --   -0.40149  -0.36732  -0.35560  -0.34095  -0.32203
 Alpha  occ. eigenvalues --   -0.30237  -0.29889  -0.26094
 Alpha virt. eigenvalues --   -0.03433   0.04032   0.04955   0.05554   0.10608
 Alpha virt. eigenvalues --    0.10987   0.13285   0.14096   0.14455   0.15595
 Alpha virt. eigenvalues --    0.15798   0.16371   0.17456   0.18886   0.19409
 Alpha virt. eigenvalues --    0.19921   0.20471   0.20623   0.20968   0.21516
 Alpha virt. eigenvalues --    0.21858   0.22400   0.22879   0.23409   0.24091
 Alpha virt. eigenvalues --    0.24515   0.24871   0.25197   0.27705   0.27862
 Alpha virt. eigenvalues --    0.28593   0.29502   0.30936   0.31335   0.31472
 Alpha virt. eigenvalues --    0.32323   0.32560   0.33509   0.34511   0.34655
 Alpha virt. eigenvalues --    0.35998   0.36359   0.36677   0.37724   0.38103
 Alpha virt. eigenvalues --    0.38633   0.40189   0.42104   0.43917   0.44100
 Alpha virt. eigenvalues --    0.46349   0.47463   0.48009   0.48449   0.49222
 Alpha virt. eigenvalues --    0.50580   0.50863   0.51157   0.52139   0.52633
 Alpha virt. eigenvalues --    0.54159   0.54661   0.54973   0.55405   0.55980
 Alpha virt. eigenvalues --    0.56355   0.56598   0.57289   0.59140   0.60705
 Alpha virt. eigenvalues --    0.60740   0.61162   0.61644   0.62324   0.63421
 Alpha virt. eigenvalues --    0.64363   0.64681   0.65891   0.65971   0.66326
 Alpha virt. eigenvalues --    0.67226   0.68522   0.69185   0.69218   0.70093
 Alpha virt. eigenvalues --    0.70737   0.71142   0.71412   0.71826   0.72431
 Alpha virt. eigenvalues --    0.72761   0.73352   0.73699   0.73958   0.74485
 Alpha virt. eigenvalues --    0.74598   0.74954   0.75515   0.75734   0.76737
 Alpha virt. eigenvalues --    0.77527   0.77758   0.78043   0.78582   0.79187
 Alpha virt. eigenvalues --    0.79321   0.79665   0.79907   0.80292   0.80679
 Alpha virt. eigenvalues --    0.80949   0.81192   0.81489   0.82080   0.83046
 Alpha virt. eigenvalues --    0.83285   0.83468   0.84105   0.85660   0.86296
 Alpha virt. eigenvalues --    0.86637   0.87359   0.87653   0.88901   0.89495
 Alpha virt. eigenvalues --    0.90237   0.91227   0.91667   0.92295   0.93937
 Alpha virt. eigenvalues --    0.94860   0.95128   0.96598   0.97934   0.98759
 Alpha virt. eigenvalues --    0.99559   1.01560   1.02159   1.03192   1.04764
 Alpha virt. eigenvalues --    1.06488   1.06656   1.08173   1.10791   1.11229
 Alpha virt. eigenvalues --    1.11517   1.14431   1.15429   1.16686   1.18960
 Alpha virt. eigenvalues --    1.19761   1.20144   1.21614   1.23298   1.24090
 Alpha virt. eigenvalues --    1.24895   1.25885   1.26954   1.28438   1.29690
 Alpha virt. eigenvalues --    1.30422   1.30713   1.31936   1.33006   1.33322
 Alpha virt. eigenvalues --    1.34480   1.35097   1.36413   1.37994   1.38404
 Alpha virt. eigenvalues --    1.38593   1.39333   1.40332   1.42761   1.43446
 Alpha virt. eigenvalues --    1.44788   1.45831   1.46793   1.49987   1.51320
 Alpha virt. eigenvalues --    1.52830   1.54062   1.55183   1.56124   1.57736
 Alpha virt. eigenvalues --    1.60529   1.62830   1.63499   1.63652   1.64213
 Alpha virt. eigenvalues --    1.65018   1.68839   1.70351   1.72769   1.74021
 Alpha virt. eigenvalues --    1.74690   1.75310   1.76896   1.77375   1.78619
 Alpha virt. eigenvalues --    1.79031   1.79874   1.80687   1.81139   1.81822
 Alpha virt. eigenvalues --    1.82833   1.83789   1.84306   1.85352   1.85865
 Alpha virt. eigenvalues --    1.86322   1.86521   1.87041   1.87529   1.87792
 Alpha virt. eigenvalues --    1.88671   1.89945   1.90446   1.91007   1.91220
 Alpha virt. eigenvalues --    1.91702   1.92443   1.92845   1.93857   1.94045
 Alpha virt. eigenvalues --    1.94740   1.95320   1.96829   1.98749   1.99189
 Alpha virt. eigenvalues --    2.00406   2.01141   2.01542   2.01925   2.03066
 Alpha virt. eigenvalues --    2.04065   2.04247   2.04980   2.05772   2.07511
 Alpha virt. eigenvalues --    2.07670   2.08748   2.09265   2.10831   2.11976
 Alpha virt. eigenvalues --    2.13031   2.14924   2.15838   2.16537   2.16957
 Alpha virt. eigenvalues --    2.18064   2.19959   2.21356   2.21567   2.21895
 Alpha virt. eigenvalues --    2.22511   2.23655   2.24826   2.25796   2.26993
 Alpha virt. eigenvalues --    2.27893   2.29677   2.31172   2.31827   2.32462
 Alpha virt. eigenvalues --    2.34973   2.36359   2.36569   2.37239   2.37542
 Alpha virt. eigenvalues --    2.38103   2.38355   2.39542   2.40059   2.42408
 Alpha virt. eigenvalues --    2.43762   2.44153   2.44950   2.47764   2.48948
 Alpha virt. eigenvalues --    2.50851   2.51293   2.54792   2.55723   2.56022
 Alpha virt. eigenvalues --    2.58064   2.59789   2.62093   2.63343   2.65622
 Alpha virt. eigenvalues --    2.67091   2.67778   2.68694   2.68822   2.69790
 Alpha virt. eigenvalues --    2.70739   2.71894   2.72708   2.75215   2.76921
 Alpha virt. eigenvalues --    2.77397   2.78987   2.81662   2.82757   2.86857
 Alpha virt. eigenvalues --    2.87301   2.88993   2.91240   2.92214   2.93531
 Alpha virt. eigenvalues --    2.95543   2.96182   2.97475   2.98090   2.98901
 Alpha virt. eigenvalues --    2.99722   3.01555   3.02482   3.04334   3.06055
 Alpha virt. eigenvalues --    3.07062   3.07503   3.09316   3.10944   3.12812
 Alpha virt. eigenvalues --    3.14916   3.16377   3.16712   3.17807   3.22072
 Alpha virt. eigenvalues --    3.22842   3.24133   3.30261   3.31278   3.32066
 Alpha virt. eigenvalues --    3.44841   3.46830   3.49616   3.51762   3.53082
 Alpha virt. eigenvalues --    3.73384   3.83563   3.86148
  Beta  occ. eigenvalues -- -101.69606 -19.25640 -14.50508 -14.47114 -14.46336
  Beta  occ. eigenvalues --  -14.42384 -10.37935 -10.37630 -10.37411 -10.35778
  Beta  occ. eigenvalues --  -10.33567 -10.32647 -10.32630 -10.32312 -10.32218
  Beta  occ. eigenvalues --  -10.32114 -10.31395 -10.31174 -10.31127 -10.30936
  Beta  occ. eigenvalues --  -10.29672 -10.28499 -10.28125  -9.60389  -7.35768
  Beta  occ. eigenvalues --   -7.34797  -7.34779  -1.11483  -1.11242  -1.04688
  Beta  occ. eigenvalues --   -0.99741  -0.98935  -0.96725  -0.95133  -0.90186
  Beta  occ. eigenvalues --   -0.86963  -0.85508  -0.84761  -0.84072  -0.79590
  Beta  occ. eigenvalues --   -0.79355  -0.77292  -0.72554  -0.72459  -0.71803
  Beta  occ. eigenvalues --   -0.69022  -0.67831  -0.67237  -0.63976  -0.62876
  Beta  occ. eigenvalues --   -0.62391  -0.60225  -0.58597  -0.57401  -0.56353
  Beta  occ. eigenvalues --   -0.55712  -0.55221  -0.54501  -0.53926  -0.53471
  Beta  occ. eigenvalues --   -0.52651  -0.51887  -0.51333  -0.50692  -0.50128
  Beta  occ. eigenvalues --   -0.49051  -0.48601  -0.47263  -0.46883  -0.46702
  Beta  occ. eigenvalues --   -0.45881  -0.45231  -0.44300  -0.44212  -0.43763
  Beta  occ. eigenvalues --   -0.42493  -0.42376  -0.41489  -0.41416  -0.40712
  Beta  occ. eigenvalues --   -0.40149  -0.36732  -0.35560  -0.34095  -0.32203
  Beta  occ. eigenvalues --   -0.30237  -0.29889  -0.26094
  Beta virt. eigenvalues --   -0.03433   0.04032   0.04955   0.05554   0.10608
  Beta virt. eigenvalues --    0.10987   0.13285   0.14096   0.14455   0.15595
  Beta virt. eigenvalues --    0.15798   0.16371   0.17456   0.18886   0.19409
  Beta virt. eigenvalues --    0.19921   0.20471   0.20623   0.20968   0.21516
  Beta virt. eigenvalues --    0.21858   0.22400   0.22879   0.23409   0.24091
  Beta virt. eigenvalues --    0.24515   0.24871   0.25197   0.27705   0.27862
  Beta virt. eigenvalues --    0.28593   0.29502   0.30936   0.31335   0.31472
  Beta virt. eigenvalues --    0.32323   0.32560   0.33509   0.34511   0.34655
  Beta virt. eigenvalues --    0.35998   0.36359   0.36677   0.37724   0.38103
  Beta virt. eigenvalues --    0.38633   0.40189   0.42104   0.43917   0.44100
  Beta virt. eigenvalues --    0.46349   0.47463   0.48009   0.48449   0.49222
  Beta virt. eigenvalues --    0.50580   0.50863   0.51157   0.52139   0.52633
  Beta virt. eigenvalues --    0.54159   0.54661   0.54973   0.55405   0.55980
  Beta virt. eigenvalues --    0.56355   0.56598   0.57289   0.59140   0.60705
  Beta virt. eigenvalues --    0.60740   0.61162   0.61644   0.62324   0.63421
  Beta virt. eigenvalues --    0.64363   0.64681   0.65891   0.65971   0.66326
  Beta virt. eigenvalues --    0.67226   0.68522   0.69185   0.69218   0.70093
  Beta virt. eigenvalues --    0.70737   0.71142   0.71412   0.71826   0.72431
  Beta virt. eigenvalues --    0.72761   0.73352   0.73699   0.73958   0.74485
  Beta virt. eigenvalues --    0.74598   0.74954   0.75515   0.75734   0.76737
  Beta virt. eigenvalues --    0.77527   0.77758   0.78043   0.78582   0.79187
  Beta virt. eigenvalues --    0.79321   0.79665   0.79907   0.80292   0.80679
  Beta virt. eigenvalues --    0.80949   0.81192   0.81489   0.82080   0.83046
  Beta virt. eigenvalues --    0.83285   0.83468   0.84105   0.85660   0.86296
  Beta virt. eigenvalues --    0.86637   0.87359   0.87653   0.88901   0.89495
  Beta virt. eigenvalues --    0.90237   0.91227   0.91667   0.92295   0.93937
  Beta virt. eigenvalues --    0.94860   0.95128   0.96598   0.97934   0.98759
  Beta virt. eigenvalues --    0.99559   1.01560   1.02159   1.03192   1.04764
  Beta virt. eigenvalues --    1.06488   1.06656   1.08173   1.10791   1.11229
  Beta virt. eigenvalues --    1.11517   1.14431   1.15429   1.16686   1.18960
  Beta virt. eigenvalues --    1.19761   1.20144   1.21614   1.23298   1.24090
  Beta virt. eigenvalues --    1.24895   1.25885   1.26954   1.28438   1.29690
  Beta virt. eigenvalues --    1.30422   1.30713   1.31936   1.33006   1.33322
  Beta virt. eigenvalues --    1.34480   1.35097   1.36413   1.37994   1.38404
  Beta virt. eigenvalues --    1.38593   1.39333   1.40332   1.42761   1.43446
  Beta virt. eigenvalues --    1.44788   1.45831   1.46793   1.49987   1.51320
  Beta virt. eigenvalues --    1.52830   1.54062   1.55183   1.56124   1.57736
  Beta virt. eigenvalues --    1.60529   1.62830   1.63499   1.63652   1.64213
  Beta virt. eigenvalues --    1.65018   1.68839   1.70351   1.72769   1.74021
  Beta virt. eigenvalues --    1.74690   1.75310   1.76896   1.77375   1.78619
  Beta virt. eigenvalues --    1.79031   1.79874   1.80687   1.81139   1.81822
  Beta virt. eigenvalues --    1.82833   1.83789   1.84306   1.85352   1.85865
  Beta virt. eigenvalues --    1.86322   1.86521   1.87041   1.87529   1.87792
  Beta virt. eigenvalues --    1.88671   1.89945   1.90446   1.91007   1.91220
  Beta virt. eigenvalues --    1.91702   1.92443   1.92845   1.93857   1.94045
  Beta virt. eigenvalues --    1.94740   1.95320   1.96829   1.98749   1.99189
  Beta virt. eigenvalues --    2.00406   2.01141   2.01542   2.01925   2.03066
  Beta virt. eigenvalues --    2.04065   2.04247   2.04980   2.05772   2.07511
  Beta virt. eigenvalues --    2.07670   2.08748   2.09265   2.10831   2.11976
  Beta virt. eigenvalues --    2.13031   2.14924   2.15838   2.16537   2.16957
  Beta virt. eigenvalues --    2.18064   2.19959   2.21356   2.21567   2.21895
  Beta virt. eigenvalues --    2.22511   2.23655   2.24826   2.25796   2.26993
  Beta virt. eigenvalues --    2.27893   2.29677   2.31172   2.31827   2.32462
  Beta virt. eigenvalues --    2.34973   2.36359   2.36569   2.37239   2.37542
  Beta virt. eigenvalues --    2.38103   2.38355   2.39542   2.40059   2.42408
  Beta virt. eigenvalues --    2.43762   2.44153   2.44950   2.47764   2.48948
  Beta virt. eigenvalues --    2.50851   2.51293   2.54792   2.55723   2.56022
  Beta virt. eigenvalues --    2.58064   2.59789   2.62093   2.63343   2.65622
  Beta virt. eigenvalues --    2.67091   2.67778   2.68694   2.68822   2.69790
  Beta virt. eigenvalues --    2.70739   2.71894   2.72708   2.75215   2.76921
  Beta virt. eigenvalues --    2.77397   2.78987   2.81662   2.82757   2.86857
  Beta virt. eigenvalues --    2.87301   2.88993   2.91240   2.92214   2.93531
  Beta virt. eigenvalues --    2.95543   2.96182   2.97475   2.98090   2.98901
  Beta virt. eigenvalues --    2.99722   3.01555   3.02482   3.04334   3.06055
  Beta virt. eigenvalues --    3.07062   3.07503   3.09316   3.10944   3.12812
  Beta virt. eigenvalues --    3.14916   3.16377   3.16712   3.17807   3.22072
  Beta virt. eigenvalues --    3.22842   3.24133   3.30261   3.31278   3.32066
  Beta virt. eigenvalues --    3.44841   3.46830   3.49616   3.51762   3.53082
  Beta virt. eigenvalues --    3.73384   3.83563   3.86148
          Condensed to atoms (all electrons):
               1          2          3          4          5          6
     1  C    5.295421   0.029080  -0.096847   0.108875   0.002126  -0.135306
     2  C    0.029080   5.484459   0.458606   0.098964  -0.055258   0.128331
     3  N   -0.096847   0.458606   6.246152  -0.072384  -0.009088   0.004421
     4  C    0.108875   0.098964  -0.072384   5.415784   0.238791   0.301103
     5  Cl   0.002126  -0.055258  -0.009088   0.238791  16.933074  -0.056500
     6  C   -0.135306   0.128331   0.004421   0.301103  -0.056500   5.152789
     7  C    0.137336  -0.179985  -0.000289   0.118620   0.002873   0.131166
     8  C    0.011821  -0.002594   0.000002   0.013096  -0.000110  -0.071431
     9  O   -0.000128  -0.000023  -0.000000   0.000956   0.000000   0.010353
    10  C   -0.000712   0.000002  -0.000000  -0.000623   0.000011  -0.023201
    11  N   -0.000327   0.000055  -0.000000  -0.000154  -0.000000   0.000482
    12  C    0.000006   0.000000  -0.000000  -0.000019   0.000000  -0.000179
    13  C   -0.000004   0.000001   0.000000  -0.000008  -0.000001   0.000004
    14  C    0.000001  -0.000000   0.000000   0.000001   0.000000   0.000004
    15  C    0.282755   0.046084   0.004730  -0.127364   0.000484   0.046175
    16  N    0.407168  -0.108147  -0.018294   0.011439  -0.000023  -0.000981
    17  N   -0.036297   0.001205   0.001039  -0.000136   0.000000   0.000002
    18  C   -0.005955   0.005919   0.007018  -0.000120  -0.000000   0.000005
    19  C   -0.000327  -0.000020  -0.000191   0.000001  -0.000000  -0.000000
    20  C    0.000015  -0.000009  -0.000006  -0.000000  -0.000000  -0.000000
    21  C   -0.000011   0.000012  -0.000085  -0.000000  -0.000000  -0.000000
    22  C   -0.000028  -0.000225   0.001397   0.000003  -0.000000   0.000000
    23  C    0.012829   0.000244  -0.141790  -0.001061   0.000014   0.000007
    24  H    0.018080   0.015056   0.311726  -0.032869   0.025166  -0.000333
    25  H   -0.022063  -0.007416   0.338706   0.013226  -0.000513  -0.000712
    26  H   -0.002377   0.017876  -0.000049  -0.064118   0.002992   0.451727
    27  H    0.001120  -0.000053  -0.000000  -0.000117   0.000001   0.015401
    28  H   -0.000340   0.000009   0.000000  -0.000397   0.000002  -0.002384
    29  H    0.000014  -0.000000   0.000000  -0.000020  -0.000000  -0.000339
[...]
 33,0.00000049,0.00000802,0.00001046,0.00001333,-0.08662676,0.12177071,
 0.11786491,0.00018707,-0.00006099,0.00000503,-0.00015474,-0.00008610,-
 0.00003339,0.00007300,0.00007543,-0.00010859,0.00014653,-0.00001723,0.
 00001869,-0.00002681,0.00003263,-0.00001215,-0.00007978,-0.00008160,0.
 00003600,-0.00006167,0.00005254,-0.00002306,0.00002533,0.00004194,-0.0
 0001105,-0.00003507,-0.00003701,0.00000373,-0.00000595,-0.00000820,-0.
 00000908,-0.00000207,-0.00000192,0.00003117,-0.00000226,0.00000410,-0.
 00002880,0.00000042,0.00000309,0.00000697,0.00000209,0.00000444,0.0000
 0412,0.00000871,0.00004173,0.00004670,-0.00038836,-0.00014106,-0.00008
 484,-0.00028786,0.00051175,0.00017650,0.00153542,-0.00295306,0.0001431
 9,-0.00794656,0.00112806,0.00373625,-0.33228141,-0.04465677,0.04929870
 ,-0.00990654,-0.00583626,0.00024782,0.00046064,0.00192366,0.00283946,0
 .00062329,0.00028505,-0.00020010,0.00000116,-0.00001319,0.00003103,0.0
 0000503,-0.00001172,0.00005847,0.00000269,0.00000041,-0.00000115,0.000
 00056,-0.00000665,0.00000215,0.00001129,0.00001987,0.00000640,-0.00000
 215,-0.00000526,0.00000704,0.00000321,0.00000168,-0.00000140,0.0000056
 6,-0.00000429,-0.00001509,-0.00000274,-0.00000275,0.00000324,-0.000000
 61,-0.00000189,-0.00000191,-0.00000091,-0.00000022,0.00000514,0.000001
 47,-0.00000033,-0.00000262,-0.00000076,0.00000090,-0.00000327,-0.00000
 101,-0.00000102,0.00000502,-0.00000057,-0.00000246,-0.00000268,0.00000
 275,0.00000130,-0.00000463,0.00044460,0.00056616,-0.00091349,0.3479100
 6,0.00018641,-0.00012775,-0.00003297,-0.00019452,-0.00012112,-0.000000
 49,0.00011601,0.00011611,-0.00004255,0.00015961,-0.00000334,-0.0000008
 2,-0.00001527,0.00002367,-0.00000537,-0.00008230,-0.00010602,0.0000452
 2,-0.00007888,0.00007638,-0.00001061,0.00001429,0.00003475,-0.00001189
 ,-0.00001960,-0.00002933,0.00000982,-0.00001162,-0.00000863,-0.0000121
 6,0.00000591,-0.00000241,0.00003259,-0.00000534,0.00000532,-0.00002749
 ,0.00000036,-0.00000089,0.00000787,0.00000018,-0.00000077,0.00000545,0
 .00001412,0.00001839,0.00002079,-0.00081004,-0.00038810,-0.00003419,-0
 .00081288,0.00063509,0.00021254,-0.00215621,-0.00222011,-0.00482411,-0
 .02545726,0.00155101,0.00492587,-0.04460729,-0.06158162,-0.00106079,0.
 02103219,0.00763510,-0.00339182,0.00143489,-0.00087077,-0.00500779,0.0
 0025898,-0.00115840,-0.00023751,0.00000579,-0.00000805,0.00000359,-0.0
 0000506,-0.00001983,-0.00001785,0.00000325,0.00000036,-0.00000145,0.00
 000101,-0.00000649,0.00000147,0.00000763,0.00001703,0.00000354,-0.0000
 0099,-0.00000382,0.00000593,0.00000448,0.00000021,-0.00000088,0.000001
 56,-0.00000411,-0.00001437,-0.00000065,-0.00000057,0.00000342,-0.00000
 080,-0.00000002,-0.00000213,-0.00000143,0.00000044,0.00000384,0.000003
 12,0.00000005,-0.00000177,-0.00000082,-0.00000041,-0.00000317,0.000000
 07,-0.00000027,0.00000376,-0.00000056,0.00000138,-0.00000228,-0.000000
 41,-0.00000199,-0.00000930,0.00092486,-0.00029061,0.00214814,0.0488467
 1,0.05726239,0.00020949,0.00002757,-0.00004581,0.00000214,0.00005465,-
 0.00005286,-0.00004995,-0.00002722,-0.00002051,-0.00003334,0.00000103,
 0.00002019,-0.00000478,0.00000536,-0.00000221,-0.00000033,0.00005494,-
 0.00002415,0.00006930,-0.00004021,0.00001753,-0.00000220,-0.00000781,0
 .00000149,0.00000029,0.00000578,-0.00000624,0.00000745,0.00000440,0.00
 000442,-0.00000708,0.00000143,-0.00001033,0.00000460,-0.00000250,0.000
 01042,-0.00000157,-0.00000122,-0.00000277,-0.00000207,-0.00000031,-0.0
 0000228,-0.00008483,-0.00003945,0.00004368,-0.00029595,0.00004283,-0.0
 0022138,-0.00048628,-0.00012945,0.00031954,0.00091248,-0.00484818,0.00
 476000,-0.01186969,-0.00224765,0.00602353,0.04924254,-0.00093001,-0.05
 314967,0.01566130,0.00347554,0.00223290,0.00264413,-0.00499105,0.00348
 760,-0.00051619,-0.00018659,-0.00079737,-0.00001759,-0.00000261,0.0000
 0014,0.00003258,-0.00001443,0.00005173,-0.00000086,-0.00000150,-0.0000
 0290,-0.00000032,0.00000259,-0.00000016,-0.00000176,-0.00000403,0.0000
 0069,0.00000018,0.00000116,-0.00000182,-0.00000251,0.00000022,0.000000
 13,0.00000115,-0.00000155,0.00000305,-0.00000046,0.00000024,-0.0000010
 5,0.00000079,0.00000036,0.00000106,0.00000097,0.00000038,-0.00000160,-
 0.00000182,0.00000029,0.00000041,0.00000062,0.00000178,0.00000174,0.00
 000071,0.00000068,-0.00000196,0.00000129,-0.00000193,0.00000147,0.0000
 0127,0.00000094,-0.00000081,-0.00064445,0.00217661,-0.00302791,-0.0542
 4146,0.00497745,0.04376826,0.00020476,0.00006106,0.00007539,0.00000582
 ,0.00006249,-0.00000577,-0.00002101,-0.00001882,-0.00007264,0.00003323
 ,-0.00002444,0.00000711,-0.00001899,0.00002273,-0.00000669,-0.00001702
 ,-0.00000270,0.00000163,-0.00000055,-0.00000007,0.00000134,0.00001229,
 0.00001618,-0.00000004,-0.00001627,-0.00001205,-0.00000089,0.00000091,
 -0.00000603,-0.00000091,-0.00000608,0.00000278,0.00001298,0.00000227,-
 0.00000073,-0.00001592,-0.00000134,0.00000181,0.00000378,0.00000132,0.
 00000386,0.00000284,-0.00001148,-0.00000407,0.00001009,-0.00007074,-0.
 00022033,-0.00019682,-0.00004267,0.00003340,-0.00022715,-0.00094930,0.
 00087681,0.00058927,-0.00089795,0.00187440,0.00312809,0.01120024,0.014
 79641,0.00695908,-0.11594783,-0.10703258,-0.04313845,-0.00671587,-0.02
 517355,-0.01214083,-0.00491467,-0.00101344,0.00264807,-0.00000593,-0.0
 0002320,0.00001207,0.00001577,-0.00000655,0.00009207,-0.00000038,-0.00
 000112,-0.00000096,-0.00000042,-0.00000159,0.00000109,0.00000482,0.000
 00593,0.00000239,-0.00000180,-0.00000223,0.00000267,-0.00000035,0.0000
 0196,-0.00000075,0.00000780,-0.00000092,-0.00000691,-0.00000204,-0.000
 00072,0.00000221,0.00000080,-0.00000057,-0.00000229,-0.00000075,-0.000
 00100,0.00000302,-0.00000007,-0.00000002,-0.00000114,-0.00000042,0.000
 00231,-0.00000085,-0.00000134,-0.00000241,0.00000301,0.00000041,-0.000
 00265,-0.00000417,0.00000147,0.00000234,-0.00000062,0.00040297,0.00067
 243,0.00026272,0.00042150,0.00018994,-0.00105461,0.11707665,0.00008038
 ,0.00002549,-0.00008756,-0.00006262,-0.00001393,-0.00006615,-0.0000041
 3,-0.00000634,-0.00001391,0.00006725,-0.00000753,0.00000877,-0.0000190
 7,0.00001890,-0.00000611,-0.00003637,-0.00003912,0.00001962,-0.0000350
 7,0.00002298,-0.00000930,0.00001837,0.00002811,-0.00000811,-0.00002280
 ,-0.00002391,0.00000584,-0.00000876,-0.00000882,-0.00000950,0.00000107
 ,-0.00000002,0.00002946,-0.00000355,0.00000419,-0.00002736,0.00000024,
 0.00000124,0.00000684,0.00000229,-0.00000030,0.00000444,0.00002340,0.0
 0002988,0.00001999,-0.00012655,-0.00004396,0.00013310,0.00015574,-0.00
 009710,0.00044507,0.00069473,0.00028092,0.00027112,0.00227459,0.000264
 13,-0.00466865,-0.01185882,-0.01043687,-0.00571009,-0.10705119,-0.2467
 5582,-0.09416819,0.00134654,0.00076783,-0.00247064,-0.00124184,0.00285
 895,-0.00211648,0.00000303,-0.00000703,0.00001078,0.00001360,-0.000004
 54,0.00004280,0.00000083,0.00000085,-0.00000060,0.00000014,-0.00000418
 ,0.00000162,0.00000788,0.00001262,0.00000313,-0.00000147,-0.00000356,0
 .00000537,0.00000263,0.00000142,-0.00000023,0.00000392,-0.00000316,-0.
 00001241,-0.00000079,-0.00000099,0.00000322,-0.00000082,-0.00000036,-0
 .00000269,-0.00000162,-0.00000054,0.00000461,0.00000237,0.00000018,-0.
 00000168,-0.00000059,0.00000119,-0.00000289,-0.00000151,-0.00000163,0.
 00000492,-0.00000083,0.00000033,-0.00000429,0.00000436,0.00000096,-0.0
 0000429,-0.00051327,-0.00057586,-0.00018925,0.00055055,-0.00044770,0.0
 0206928,0.11523483,0.25487245,0.00005827,-0.00004083,0.00018088,-0.000
 05753,-0.00004178,0.00006700,0.00006966,0.00008772,-0.00009576,0.00006
 405,-0.00001536,-0.00000341,-0.00000515,0.00001247,-0.00000547,-0.0000
 2812,-0.00003762,0.00001437,-0.00002646,0.00002765,-0.00001347,0.00000
 518,0.00000404,0.00000052,-0.00000819,-0.00000476,-0.00000401,0.000006
 33,0.00000163,0.00000317,-0.00000707,0.00000018,-0.00000415,0.00000391
 ,-0.00000163,0.00000368,-0.00000069,0.00000153,-0.00000157,-0.00000020
 ,0.00000414,-0.00000165,0.00000018,0.00000007,0.00001816,-0.00010543,-
 0.00000146,-0.00023483,-0.00040102,0.00021498,-0.00083055,0.00087446,0
 .00035297,-0.00027113,0.00315346,-0.00459616,0.00366612,-0.00883488,-0
 .01217255,-0.00054206,-0.04315908,-0.09446524,-0.08426581,0.00387043,0
 .00453072,0.00595339,0.00234164,-0.00228208,0.00501833,-0.00000145,-0.
 00001733,0.00001361,-0.00002149,0.00000155,-0.00000084,0.00000109,-0.0
 0000069,0.00000093,-0.00000013,-0.00000022,-0.00000007,0.00000245,0.00
 000274,0.00000196,-0.00000037,-0.00000093,0.00000037,-0.00000104,0.000
 00070,-0.00000107,0.00000271,-0.00000128,0.00000036,-0.00000191,-0.000
 00144,-0.00000074,0.00000062,-0.00000122,0.00000120,0.00000104,0.00000
 032,-0.00000011,-0.00000185,-0.00000035,-0.00000062,0.00000011,0.00000
 093,0.00000036,0.00000012,0.00000051,-0.00000036,0.00000079,-0.0000035
 0,0.00000146,-0.00000106,0.00000127,0.00000042,-0.00042278,-0.00047017
 ,-0.00013838,-0.00088064,0.00213626,-0.00271217,0.04442209,0.10458051,
 0.07679783,0.00010786,0.00000552,0.00001109,-0.00008612,-0.00007128,0.
 00000350,0.00005120,0.00010200,0.00003550,0.00004592,0.00000940,-0.000
 00367,-0.00000232,0.00001509,-0.00000002,-0.00002227,-0.00002399,0.000
 01237,-0.00000342,0.00001704,0.00000671,-0.00000954,-0.00001164,-0.000
 00515,0.00000937,0.00000978,0.00000201,0.00000401,0.00000074,-0.000001
 14,-0.00000561,0.00000307,-0.00000527,0.00000674,-0.00000351,0.0000109
 9,-0.00000452,-0.00000800,-0.00000205,-0.00000490,-0.00000286,-0.00000
 161,-0.00001821,-0.00001597,0.00002386,-0.00010130,0.00015616,0.000109
 13,0.00062848,-0.00066642,-0.00056166,-0.00044751,-0.00336978,0.000128
 84,-0.00054039,-0.00078160,-0.00053791,-0.00482904,-0.00260665,0.00165
 230,-0.00902278,0.02134694,0.01652925,-0.13727602,0.09674282,0.0852475
 7,0.01105230,-0.01123231,-0.00861948,-0.00000184,-0.00000610,-0.000043
 04,-0.00000897,-0.00001989,-0.00003748,-0.00000037,-0.00000243,-0.0000
 0208,-0.00000007,0.00000258,-0.00000052,-0.00000306,-0.00000486,-0.000
 00155,0.00000136,0.00000257,-0.00000180,-0.00000284,-0.00000020,0.0000
 0002,0.00000065,-0.00000555,0.00000178,-0.00000004,0.00000300,-0.00000
 129,0.00000229,0.00000281,0.00000228,0.00000127,0.00000269,-0.00000315
 ,-0.00000120,0.00000060,0.00000076,0.,0.00000152,0.00000161,0.00000192
 ,0.00000218,-0.00000329,0.00000349,-0.00000007,0.00000333,0.00000035,0
 .00000108,-0.00000307,-0.00000468,0.00015352,-0.00016830,-0.00058545,0
 .00098494,0.00069112,0.00063654,0.00043454,-0.00107693,0.14001554,0.00
 030242,-0.00002272,0.00003491,-0.00023940,-0.00014451,-0.00008837,0.00
 005363,0.00017269,-0.00000969,0.00018687,-0.00000177,0.00001938,-0.000
 03869,0.00004772,-0.00001080,-0.00010247,-0.00011069,0.00005279,-0.000
 08532,0.00006799,-0.00001722,0.00002057,0.00003925,-0.00003531,-0.0000
 2818,-0.00003504,0.00002394,-0.00002495,-0.00001933,-0.00003025,0.0000
 0487,0.00000627,0.00007120,-0.00000394,0.00000963,-0.00005375,-0.00000
 621,-0.00001645,0.00001679,-0.00000871,-0.00002542,0.00001093,0.000003
 88,0.00006876,0.00010199,-0.00022855,0.00047240,0.00005948,0.00134925,
 -0.00080673,-0.00054625,-0.00408697,-0.00114323,-0.00433930,-0.0008903
 4,-0.00038046,0.00051003,-0.00200039,0.00266735,-0.00215815,-0.0050199
 8,0.00704075,0.00302962,0.09664993,-0.17869330,-0.11008956,0.01476619,
 -0.01054655,-0.01301121,-0.00000935,-0.00002367,-0.00002716,0.00009770
 ,-0.00007420,0.00002154,0.00000148,-0.00000147,-0.00000653,0.00000027,
 -0.00000531,0.00000296,0.00001054,0.00001845,0.00000349,0.00000052,-0.
 00000311,0.00000846,0.00000441,0.00000165,0.00000084,0.00000353,-0.000
 01550,-0.00003098,0.00000394,0.00000585,0.00000798,-0.00000115,0.00000
 783,-0.00000587,-0.00000341,0.00000252,0.00000559,0.00000746,0.0000038
 6,-0.00000175,0.00000007,0.00000730,-0.00000260,0.00000245,0.00000082,
 0.00000473,0.00000277,0.00000867,-0.00000727,0.00000847,0.00000132,-0.
 00001456,0.00013950,-0.00025064,0.00039430,-0.00024180,0.00021456,0.00
 013470,0.00076778,-0.00062318,0.00193633,-0.10206879,0.18244300,0.0003
 1595,0.00002473,0.00005258,-0.00031310,-0.00027044,0.00010090,0.000235
 41,0.00032885,-0.00011367,0.00022408,-0.00000254,0.00000752,-0.0000234
 3,0.00006079,-0.00001576,-0.00009951,-0.00011478,0.00004982,-0.0000610
 4,0.00008571,-0.00002278,0.00000565,0.00000950,-0.00000910,-0.00001506
 ,-0.00001020,-0.00000101,0.00001042,0.00000008,0.00000109,-0.00001258,
 0.00000227,0.00000401,0.00000618,-0.00000289,-0.00000041,-0.00000256,0
 .00000049,-0.00000071,-0.00000010,0.00000549,-0.00000141,-0.00000214,0
 .00000928,0.00006211,-0.00045178,-0.00008609,0.00013331,0.00070211,-0.
 00009126,-0.00064488,-0.00077045,-0.00416047,0.00543723,-0.00015776,0.
 00076199,-0.00035581,0.00190004,-0.00218591,0.00519664,0.00016301,-0.0
 0400006,0.00179002,0.08580319,-0.11010109,-0.12940285,0.00715082,-0.00
 626564,-0.00141251,-0.00004066,-0.00006219,-0.00004836,-0.00001811,-0.
 00010324,-0.00002920,0.00000252,-0.00000328,-0.00000135,0.00000008,0.0
 0000054,-0.00000052,0.00000480,0.00000600,0.00000301,-0.00000031,-0.00
 000141,0.00000074,-0.00000205,0.00000155,-0.00000175,0.00000645,-0.000
 00595,-0.00000337,-0.00000288,-0.00000104,-0.00000056,0.00000235,-0.00
 000077,0.00000215,0.00000124,0.00000137,0.00000015,-0.00000259,-0.0000
 0118,-0.00000110,-0.00000070,0.00000120,-0.00000008,0.00000006,0.00000
 069,0.00000005,0.00000136,-0.00000403,0.00000205,0.00000317,0.00000540
 ,-0.00000779,-0.00014633,0.00035149,-0.00068851,0.00002647,-0.00018984
 ,-0.00004627,-0.00085757,0.00198810,-0.00275411,-0.09261192,0.12175088
 ,0.12552850,0.00033348,0.00025138,0.00027321,0.00000011,0.00014797,-0.
 00038647,-0.00027567,-0.00007416,-0.00065955,-0.00012901,0.00000580,0.
 00010413,0.00000941,-0.00002532,0.00000060,-0.00003045,0.00003538,-0.0
 0000946,0.00003761,0.00000289,-0.00001619,-0.00000284,-0.00001915,0.00
 001136,0.00000770,0.00001710,-0.00001225,0.00002598,0.00000458,0.00001
 684,-0.00003833,0.00001239,-0.00002970,0.00002383,-0.00001310,0.000031
 87,-0.00000756,-0.00000308,-0.00001268,0.00000413,0.00002587,-0.000003
 96,0.00001079,-0.00004387,0.00007436,0.00234909,-0.00300157,-0.0018856
 7,-0.00387003,-0.00144487,-0.00165772,-0.01148731,-0.00209903,0.002951
 68,0.00021192,0.00178817,0.00264416,0.00067534,0.00030270,-0.00022975,
 0.00133405,-0.00276580,0.00006496,-0.00695021,0.00109372,0.00382478,-0
 .32552664,-0.04855369,0.05458772,0.00003182,-0.00002805,-0.00007579,-0
 .00036029,0.00015266,-0.00001876,0.00000018,-0.00000085,-0.00000104,0.
 00000112,0.00000817,-0.00000119,-0.00000412,-0.00000805,-0.00000140,-0
 .00000112,0.00000330,-0.00000408,-0.00001167,0.00000167,-0.00000269,0.
 00003319,-0.00001802,0.00001463,-0.00000880,-0.00000054,-0.00000663,0.
 00000609,0.00000021,0.00000614,0.00000317,0.00000273,-0.00000358,-0.00
 000799,-0.00000031,0.00000133,0.00000018,0.00000861,0.00000068,-0.0000
 0745,-0.00000479,0.00000051,0.00001042,-0.00001580,-0.00000723,0.00000
 910,0.00002624,0.00000313,-0.00056197,-0.00036742,-0.00003473,-0.00009
 923,0.00006563,-0.00016431,-0.00038432,0.00006837,0.00016490,0.0004132
 0,0.00070011,-0.00097274,0.34423309,-0.00196927,-0.00097908,-0.0011101
 0,0.00068413,0.00091353,-0.00024821,-0.00037631,-0.00108062,-0.0001853
 2,-0.00056013,-0.00000657,0.00013467,0.00009882,-0.00015977,0.00004497
 ,0.00018306,0.00021888,-0.00013652,0.00007128,-0.00010352,0.00004017,-
 0.00002930,-0.00004423,0.00003111,0.00006511,0.00004259,0.00000508,-0.
 00003207,0.00001848,-0.00001310,0.00004682,-0.00002569,-0.00004979,-0.
 00001192,0.00001415,0.00006591,0.00000952,0.00000290,-0.00001458,-0.00
 000600,-0.00002283,-0.00001807,0.00002058,-0.00006113,-0.00023369,0.00
 070414,-0.00043977,0.00062707,0.00031922,-0.00053077,0.00189588,0.0185
 6026,0.00925462,-0.00283982,0.00123627,-0.00145092,-0.00474012,0.00021
 348,-0.00104036,-0.00010682,-0.00241842,-0.00181177,-0.00505252,-0.024
 39368,0.00167960,0.00524786,-0.04723986,-0.06195000,0.00005327,0.00002
 334,0.00003499,0.00020192,0.00010791,0.00035889,0.00041377,-0.00000068
 ,0.00000902,0.00001479,0.00000007,0.00000032,-0.00000322,-0.00001572,-
 0.00002045,-0.00001046,0.00001002,0.00000752,-0.00000293,0.00000932,-0
 .00000901,0.00000638,-0.00006270,0.00001936,0.00003616,0.00001241,0.00
 000196,-0.00001196,-0.00000512,0.00000029,0.00000467,0.00000262,-0.000
 00112,-0.00000975,0.00000263,-0.00000085,0.00000375,0.00000202,-0.0000
 1419,0.00000535,0.00000855,0.00001095,-0.00001230,-0.00000227,0.000023
 36,0.00001842,0.00000107,-0.00001668,0.00000202,0.00106551,0.00025483,
 -0.00027883,0.00007977,-0.00018910,0.00043749,-0.00107763,-0.00008618,
 0.00025735,0.00090128,-0.00036534,0.00226789,0.05376185,0.05754371,-0.
 00129079,-0.00085745,-0.00006532,-0.00099566,-0.00182924,0.00005493,0.
 00070039,0.00109820,0.00026941,0.00006128,0.00019419,0.00000646,0.0001
 0570,-0.00008708,-0.00002785,0.00011563,-0.00003469,-0.00001189,0.0000
 5678,0.00005884,-0.00000485,-0.00007716,-0.00013001,0.00002613,0.00007
 504,0.00009487,-0.00005379,0.00008902,0.00005859,0.00009622,-0.0000268
 9,0.00000833,-0.00017012,0.00001369,-0.00003171,0.00011045,0.00001096,
 0.00003536,-0.00003513,0.00002712,0.00006385,-0.00001444,-0.00007431,0
 .00006313,0.00001243,0.00074603,0.00010093,-0.00111724,-0.00227056,0.0
 0080157,-0.00236208,0.01524264,0.00701095,0.00442059,0.00164648,-0.005
 01595,0.00246191,-0.00020994,0.00001361,-0.00087693,0.00042850,-0.0049
 4338,0.00423754,-0.01202430,-0.00226961,0.00594806,0.05726159,-0.00060
 302,-0.05310837,0.00003595,0.00013025,-0.00008656,-0.00046525,0.000208
 95,-0.00200207,0.00000582,0.00000891,0.00001377,0.00000247,0.00002230,
 -0.00001183,-0.00003151,-0.00005226,-0.00000930,-0.00000226,0.00000746
 ,-0.00003388,-0.00001509,-0.00000223,-0.00000661,0.00001881,0.00003631
 ,0.00007668,-0.00001061,-0.00001072,-0.00001372,0.00000403,-0.00001657
 ,0.00000760,0.00000448,-0.00000826,-0.00001137,-0.00001820,-0.00000660
 ,0.00000611,0.00000050,-0.00000796,0.00000597,-0.00001339,-0.00001243,
 -0.00000633,-0.00000846,-0.00003064,-0.00000080,-0.00000220,0.00003826
 ,0.00001638,0.00091170,0.00003119,0.00005631,-0.00015988,0.00039607,-0
 .00061774,-0.00050704,-0.00007818,0.00013822,-0.00078168,0.00228372,-0
 .00280804,-0.05857941,0.00326215,0.04549108\\-0.00000014,0.00000022,0.
 00000018,0.00000024,0.00000050,-0.00000008,0.00000022,-0.00000027,0.00
 000071,0.00000006,0.00000008,0.00000017,0.00000035,0.00000059,0.000000
 23,0.00000025,0.00000065,-0.00000029,-0.00000006,0.00000023,-0.0000002
 5,-0.00000024,0.00000027,-0.00000037,0.00000035,0.00000034,-0.00000080
 ,-0.00000008,0.00000006,-0.00000044,-0.00000044,-0.00000019,-0.0000001
 5,-0.00000034,-0.00000017,-0.00000041,-0.00000016,-0.00000049,-0.00000
 013,-0.00000028,-0.00000057,-0.00000028,0.00000007,0.00000037,-0.00000
 016,0.00000140,0.00000008,0.00000009,0.00000065,0.00000059,0.00000006,
 0.00000736,0.00000326,0.00000024,-0.00000949,-0.00000232,0.00000170,-0
 .00000053,0.00000306,0.00000261,-0.00000842,-0.00000431,0.00000075,0.0
 0001105,0.00000255,-0.00000100,0.00000051,-0.00000312,-0.00000166,0.,0
 .00000005,0.00000014,-0.00000062,-0.00000010,-0.00000025,0.00000014,0.
 00000020,-0.00000012,-0.00000011,0.00000003,-0.00000018,-0.00000012,0.
 00000021,0.00000037,-0.00000003,0.00000004,-0.00000021,0.00000010,-0.0
 0000009,-0.00000016,-0.00000004,-0.00000005,-0.00000007,-0.00000013,0.
 ,-0.00000025,-0.00000009,-0.00000023,-0.00000002,-0.00000001,-0.000000
 06,-0.00000063,0.00000025,-0.00000010,0.,-0.00000040,0.00000011,-0.000
 00001,-0.00000011,-0.00000013,-0.00000044,-0.00000004,-0.00000017,-0.0
 0000005,0.00000002,0.00000007,-0.00000009,-0.00000336,0.00000183,0.000
 00194,-0.00001011,-0.00000116,0.00000247,-0.00000143,-0.00000068,0.000
 00037,0.00000414,-0.00000223,-0.00000224,0.00000966,0.00000106,-0.0000
 0130\\\@
 The archive entry for this job was punched.


 YOU CAN WIPE THE SLATE CLEAN, BUT YOU'LL STILL
 HAVE TO EAT A LITTLE CHALK DUST.
 Job cpu time:       0 days  1 hours 57 minutes 17.4 seconds.
 Elapsed time:       0 days  0 hours 10 minutes 54.9 seconds.
 File lengths (MBytes):  RWF=   1845 Int=      0 D2E=      0 Chk=     22 Scr=      1
 Normal termination of Gaussian 16 at Thu Oct  9 21:04:46 2025.
