 Entering Gaussian System, Link 0=g16
 Initial command:
 /prod/precompiled/gaussian/16c2/g16/l1.exe "/scratch/ucsscms/svela/2076951/Gau-33034.inp" -scrdir="/scratch/ucsscms/svela/2076951/"
 Entering Link 1 = /prod/precompiled/gaussian/16c2/g16/l1.exe PID=     33045.
  
 Copyright (c) 1988-2021, Gaussian, Inc.  All Rights Reserved.
  
 This is part of the Gaussian(R) 16 program.  It is based on
 the Gaussian(R) 09 system (copyright 2009, Gaussian, Inc.),
 the Gaussian(R) 03 system (copyright 2003, Gaussian, Inc.),
 the Gaussian(R) 98 system (copyright 1998, Gaussian, Inc.),
 the Gaussian(R) 94 system (copyright 1995, Gaussian, Inc.),
 the Gaussian 92(TM) system (copyright 1992, Gaussian, Inc.),
 the Gaussian 90(TM) system (copyright 1990, Gaussian, Inc.),
 the Gaussian 88(TM) system (copyright 1988, Gaussian, Inc.),
 the Gaussian 86(TM) system (copyright 1986, Carnegie Mellon
 University), and the Gaussian 82(TM) system (copyright 1983,
 Carnegie Mellon University). Gaussian is a federally registered
 trademark of Gaussian, Inc.
  
 This software contains proprietary and confidential information,
 including trade secrets, belonging to Gaussian, Inc.
  
 This software is provided under written license and may be
 used, copied, transmitted, or stored only in accord with that
 written license.
  
 The following legend is applicable only to US Government
 contracts under FAR:
  
                    RESTRICTED RIGHTS LEGEND
  
 Use, reproduction and disclosure by the US Government is
 subject to restrictions as set forth in subparagraphs (a)
 and (c) of the Commercial Computer Software - Restricted
 Rights clause in FAR 52.227-19.
  
 Gaussian, Inc.
 340 Quinnipiac St., Bldg. 40, Wallingford CT 06492
  
  
 ---------------------------------------------------------------
 Warning -- This program may not be used in any manner that
 competes with the business of Gaussian, Inc. or will provide
 assistance to any competitor of Gaussian, Inc.  The licensee
 of this program is prohibited from giving any competitor of
 Gaussian, Inc. access to this program.  By using this program,
 the user acknowledges that Gaussian, Inc. is engaged in the
 business of creating and licensing software in the field of
 computational chemistry and represents and warrants to the
 licensee that it is not a competitor of Gaussian, Inc. and that
 it will not use this program in any manner prohibited above.
 ---------------------------------------------------------------
  

 Cite this work as:
 Gaussian 16, Revision C.02,
 M. J. Frisch, G. W. Trucks, H. B. Schlegel, G. E. Scuseria, 
 M. A. Robb, J. R. Cheeseman, G. Scalmani, V. Barone, 
 G. A. Petersson, H. Nakatsuji, X. Li, M. Caricato, A. V. Marenich, 
 J. Bloino, B. G. Janesko, R. Gomperts, B. Mennucci, H. P. Hratchian, 
 J. V. Ortiz, A. F. Izmaylov, J. L. Sonnenberg, D. Williams-Young, 
 F. Ding, F. Lipparini, F. Egidi, J. Goings, B. Peng, A. Petrone, 
 T. Henderson, D. Ranasinghe, V. G. Zakrzewski, J. Gao, N. Rega, 
 G. Zheng, W. Liang, M. Hada, M. Ehara, K. Toyota, R. Fukuda, 
 J. Hasegawa, M. Ishida, T. Nakajima, Y. Honda, O. Kitao, H. Nakai, 
 T. Vreven, K. Throssell, J. A. Montgomery, Jr., J. E. Peralta, 
 F. Ogliaro, M. J. Bearpark, J. J. Heyd, E. N. Brothers, K. N. Kudin, 
 V. N. Staroverov, T. A. Keith, R. Kobayashi, J. Normand, 
 K. Raghavachari, A. P. Rendell, J. C. Burant, S. S. Iyengar, 
 J. Tomasi, M. Cossi, J. M. Millam, M. Klene, C. Adamo, R. Cammi, 
 J. W. Ochterski, R. L. Martin, K. Morokuma, O. Farkas, 
 J. B. Foresman, and D. J. Fox, Gaussian, Inc., Wallingford CT, 2019.
 
 ******************************************
 Gaussian 16:  ES64L-G16RevC.02  7-Dec-2021
                 6-Mar-2026 
 ******************************************
 %nprocs=8
 Will use up to    8 processors via shared memory.
 %mem=12gb
 %chk=test_trans_td_r1.chk
 ----------------------------------------------------------------------
 #p nosymm scf=(maxconventionalcycles=200,xqc) wB97XD def2SVP td=(singl
 ets,nstates=10) pop=full iop(9/40=3) GFINPUT Integral=NoXCTest
 ----------------------------------------------------------------------
 1/38=1,172=1/1;
 2/12=2,15=1,17=6,18=5,40=1/2;
 3/5=43,7=101,11=9,24=10,25=1,30=1,47=8,74=-58/1,2,3,8;
 4//1;
 5/5=2,8=3,13=1,38=5,85=200/2,8;
 8/6=1,10=1,108=10/1;
 9/40=3,41=10,42=1,48=1,70=2/14;
 6/7=3/1;
 99/5=1,9=1/99;
 Leave Link    1 at Fri Mar  6 17:31:51 2026, MaxMem=  1610612736 cpu:               0.1 elap:               0.1
 (Enter /prod/precompiled/gaussian/16c2/g16/l101.exe)
 ----------
 Title Card
 ----------
 Symbolic Z-matrix:
 Charge =  0 Multiplicity = 1
 C                    -0.0311   -0.03653   0.03185 
 C                    -0.57793  -1.25098   0.48353 
 Cl                   -2.16268  -1.35724   1.19285 
 C                     0.1864   -2.41737   0.43254 
 C                     1.48172  -2.391    -0.07629 
 C                     2.03776  -1.18886  -0.51199 
 C                     1.28888  -0.02168  -0.43437 
 N                    -0.66901   1.22863   0.05515 
 N                    -1.86037   1.22757  -0.27862 
 C                    -2.49847   2.4926   -0.25547 
 C                    -1.95228   3.70681  -0.70856 
 Cl                   -0.36793   3.81274  -1.41879 
 C                    -2.71693   4.873    -0.65823 
 C                    -4.0119    4.8467   -0.14849 
 C                    -4.56726   3.64482   0.28886 
 C                    -3.8181    2.47779   0.21178 
 H                    -0.25019  -3.34728   0.79947 
 H                     2.06156  -3.31511  -0.11691 
 H                     3.05788  -1.15888  -0.89864 
 H                     1.69738   0.94131  -0.74586 
 H                    -2.28089   5.8027   -1.02639 
 H                    -4.59205   5.77064  -0.10844 
 H                    -5.58709   3.61487   0.67629 
 H                    -4.22613   1.51496   0.5244 
 
 ITRead=  0  0  0  0  0  0  0  0  0  0  0  0  0  0  0  0  0  0  0  0
 ITRead=  0  0  0  0
 MicOpt= -1 -1 -1 -1 -1 -1 -1 -1 -1 -1 -1 -1 -1 -1 -1 -1 -1 -1 -1 -1
 MicOpt= -1 -1 -1 -1
 NAtoms=     24 NQM=       24 NQMF=       0 NMMI=      0 NMMIF=      0
                NMic=       0 NMicF=      0.
                    Isotopes and Nuclear Properties:
 (Nuclear quadrupole moments (NQMom) in fm**2, nuclear magnetic moments (NMagM)
  in nuclear magnetons)

  Atom         1           2           3           4           5           6           7           8           9          10
 IAtWgt=          12          12          35          12          12          12          12          14          14          12
 AtmWgt=  12.0000000  12.0000000  34.9688527  12.0000000  12.0000000  12.0000000  12.0000000  14.0030740  14.0030740  12.0000000
 NucSpn=           0           0           3           0           0           0           0           2           2           0
 AtZEff=  -0.0000000  -0.0000000  -0.0000000  -0.0000000  -0.0000000  -0.0000000  -0.0000000  -0.0000000  -0.0000000  -0.0000000
 NQMom=    0.0000000   0.0000000  -8.1650000   0.0000000   0.0000000   0.0000000   0.0000000   2.0440000   2.0440000   0.0000000
 NMagM=    0.0000000   0.0000000   0.8218740   0.0000000   0.0000000   0.0000000   0.0000000   0.4037610   0.4037610   0.0000000
 AtZNuc=   6.0000000   6.0000000  17.0000000   6.0000000   6.0000000   6.0000000   6.0000000   7.0000000   7.0000000   6.0000000

  Atom        11          12          13          14          15          16          17          18          19          20
 IAtWgt=          12          35          12          12          12          12           1           1           1           1
 AtmWgt=  12.0000000  34.9688527  12.0000000  12.0000000  12.0000000  12.0000000   1.0078250   1.0078250   1.0078250   1.0078250
 NucSpn=           0           3           0           0           0           0           1           1           1           1
 AtZEff=  -0.0000000  -0.0000000  -0.0000000  -0.0000000  -0.0000000  -0.0000000  -0.0000000  -0.0000000  -0.0000000  -0.0000000
 NQMom=    0.0000000  -8.1650000   0.0000000   0.0000000   0.0000000   0.0000000   0.0000000   0.0000000   0.0000000   0.0000000
 NMagM=    0.0000000   0.8218740   0.0000000   0.0000000   0.0000000   0.0000000   2.7928460   2.7928460   2.7928460   2.7928460
 AtZNuc=   6.0000000  17.0000000   6.0000000   6.0000000   6.0000000   6.0000000   1.0000000   1.0000000   1.0000000   1.0000000

  Atom        21          22          23          24
 IAtWgt=           1           1           1           1
 AtmWgt=   1.0078250   1.0078250   1.0078250   1.0078250
 NucSpn=           1           1           1           1
 AtZEff=  -0.0000000  -0.0000000  -0.0000000  -0.0000000
 NQMom=    0.0000000   0.0000000   0.0000000   0.0000000
 NMagM=    2.7928460   2.7928460   2.7928460   2.7928460
 AtZNuc=   1.0000000   1.0000000   1.0000000   1.0000000
 Leave Link  101 at Fri Mar  6 17:31:52 2026, MaxMem=  1610612736 cpu:               0.2 elap:               0.1
 (Enter /prod/precompiled/gaussian/16c2/g16/l202.exe)
                          Input orientation:                          
 ---------------------------------------------------------------------
 Center     Atomic      Atomic             Coordinates (Angstroms)
 Number     Number       Type             X           Y           Z
 ---------------------------------------------------------------------
      1          6           0       -0.031101   -0.036525    0.031850
      2          6           0       -0.577926   -1.250982    0.483530
      3         17           0       -2.162683   -1.357237    1.192851
      4          6           0        0.186399   -2.417369    0.432536
      5          6           0        1.481719   -2.391000   -0.076293
      6          6           0        2.037764   -1.188863   -0.511987
      7          6           0        1.288881   -0.021682   -0.434370
      8          7           0       -0.669007    1.228632    0.055147
      9          7           0       -1.860367    1.227568   -0.278621
     10          6           0       -2.498470    2.492601   -0.255467
     11          6           0       -1.952277    3.706806   -0.708562
     12         17           0       -0.367930    3.812741   -1.418789
     13          6           0       -2.716934    4.873003   -0.658228
     14          6           0       -4.011902    4.846703   -0.148488
     15          6           0       -4.567258    3.644816    0.288859
     16          6           0       -3.818100    2.477788    0.211776
     17          1           0       -0.250194   -3.347280    0.799465
     18          1           0        2.061558   -3.315113   -0.116908
     19          1           0        3.057876   -1.158883   -0.898642
     20          1           0        1.697375    0.941305   -0.745862
     21          1           0       -2.280891    5.802699   -1.026393
     22          1           0       -4.592048    5.770638   -0.108442
     23          1           0       -5.587094    3.614874    0.676287
     24          1           0       -4.226131    1.514958    0.524398
 ---------------------------------------------------------------------
                    Distance matrix (angstroms):
                    1          2          3          4          5
     1  C    0.000000
     2  C    1.406392   0.000000
     3  Cl   2.763303   1.739506   0.000000
     4  C    2.424103   1.395440   2.687033   0.000000
     5  C    2.800691   2.419748   3.995129   1.391925   0.000000
     6  C    2.429783   2.799419   4.536362   2.414312   1.394327
     7  C    1.399976   2.416338   4.042876   2.776024   2.403970
     8  N    1.417071   2.517994   3.195647   3.763969   4.212438
     9  N    2.245114   2.892877   2.989622   4.240349   4.929960
    10  C    3.544988   4.271887   4.126940   5.638233   6.302663
    11  C    4.272195   5.281059   5.413333   6.586468   7.026758
    12  Cl   4.127306   5.413336   6.063866   6.522956   6.611346
    13  C    5.638561   6.586513   6.523004   7.922666   8.410296
    14  C    6.302794   7.026621   6.611178   8.410117   9.086772
    15  C    5.847653   6.318347   5.623141   7.705062   8.553042
    16  C    4.549231   4.947353   4.290726   6.328294   7.202511
    17  H    3.405633   2.145155   2.787945   1.090864   2.163549
    18  H    3.892363   3.404121   4.836627   2.150361   1.091718
    19  H    3.415740   3.890750   5.627426   3.406054   2.163017
    20  H    2.132749   3.390357   4.893051   3.866828   3.405743
    21  H    6.346493   7.411773   7.496913   8.705487   9.066236
    22  H    7.385463   8.109670   7.642106   9.495771  10.173692
    23  H    6.679601   6.986091   6.059317   8.353478   9.306182
    24  H    4.499776   4.578372   3.599188   5.911181   6.942398
                    6          7          8          9         10
     6  C    0.000000
     7  C    1.388943   0.000000
     8  N    3.673218   2.374076   0.000000
     9  N    4.592279   3.391555   1.237231   0.000000
    10  C    5.847769   4.549467   2.245225   1.417046   0.000000
    11  C    6.318753   4.947920   2.893334   2.517919   1.406384
    12  Cl   5.623673   4.291492   2.990109   3.195383   2.763203
    13  C    7.705502   6.328871   4.240796   3.763908   2.424099
    14  C    8.553283   7.202861   4.930198   4.212384   2.800664
    15  C    8.223875   6.946987   4.592268   3.673198   2.429768
    16  C    6.946892   5.722422   3.391417   2.374080   1.399985
    17  H    3.407847   3.866614   4.654931   4.968316   6.346010
    18  H    2.162774   3.397720   5.303886   6.003632   7.385296
    19  H    1.091343   2.153629   4.527648   5.501699   6.679820
    20  H    2.169834   1.091439   2.514744   3.599693   4.500236
    21  H    8.233914   6.856907   4.968902   4.654871   3.405645
    22  H    9.620390   8.260903   6.003901   5.303822   3.892327
    23  H    9.089903   7.857298   5.501595   4.527645   3.415737
    24  H    6.900806   5.804813   3.599349   2.514810   2.132789
                   11         12         13         14         15
    11  C    0.000000
    12  Cl   1.739483   0.000000
    13  C    1.395439   2.687085   0.000000
    14  C    2.419732   3.995156   1.391930   0.000000
    15  C    2.799432   4.536366   2.414356   1.394355   0.000000
    16  C    2.416361   4.042835   2.776063   2.403977   1.388933
    17  H    7.411569   7.496693   8.705328   9.065893   8.233296
    18  H    8.109764   7.642225   9.495907  10.173650   9.620107
    19  H    6.986608   6.060012   8.354034   9.306533   9.090014
    20  H    4.579230   3.600481   5.912026   6.942970   6.901105
    21  H    2.145174   2.788069   1.090877   2.163572   3.407906
    22  H    3.404106   4.836687   2.150364   1.091709   2.162772
    23  H    3.890778   5.627448   3.406118   2.163073   1.091358
    24  H    3.390398   4.893005   3.866878   3.405759   2.169825
                   16         17         18         19         20
    16  C    0.000000
    17  H    6.856147   0.000000
    18  H    8.260515   2.486960   0.000000
    19  H    7.857318   4.314623   2.500617   0.000000
    20  H    5.805025   4.957118   4.318021   2.507009   0.000000
    21  H    3.866666   9.548801  10.139947   8.773960   6.287961
    22  H    3.397705  10.139646  11.261501  10.352005   7.955225
    23  H    2.153619   8.773213  10.351606  10.000233   7.888851
    24  H    1.091450   6.286899   7.954615   7.888677   6.085274
                   21         22         23         24
    21  H    0.000000
    22  H    2.486988   0.000000
    23  H    4.314705   2.500647   0.000000
    24  H    4.957180   4.318008   2.506978   0.000000
 Symmetry turned off by external request.
 Stoichiometry    C12H8Cl2N2
 Framework group  C1[X(C12H8Cl2N2)]
 Deg. of freedom    66
 Full point group                 C1      NOp   1
 Rotational constants (GHZ):           0.8224950           0.2602572           0.1987448
 Leave Link  202 at Fri Mar  6 17:31:52 2026, MaxMem=  1610612736 cpu:               0.0 elap:               0.0
 (Enter /prod/precompiled/gaussian/16c2/g16/l301.exe)
 Standard basis: def2SVP (5D, 7F)
 Ernie: Thresh=  0.10000D-02 Tol=  0.10000D-05 Strict=F.
 AO basis set in the form of general basis input (Overlap normalization):
      1 0
 S   5 1.00       0.000000000000
      0.1238401694D+04  0.5517365048D-02
      0.1862900499D+03  0.4108882856D-01
      0.4225117635D+02  0.1822538213D+00
      0.1167655793D+02  0.4682845944D+00
      0.3593050648D+01  0.4457581734D+00
 S   1 1.00       0.000000000000
      0.4024514736D+00  0.1000000000D+01
 S   1 1.00       0.000000000000
      0.1309018267D+00  0.1000000000D+01
 P   3 1.00       0.000000000000
      0.9468097062D+01  0.5688833201D-01
      0.2010354514D+01  0.3129405934D+00
      0.5477100471D+00  0.7606501651D+00
 P   1 1.00       0.000000000000
      0.1526861379D+00  0.1000000000D+01
 D   1 1.00       0.000000000000
      0.8000000000D+00  0.1000000000D+01
 ****
      2 0
 S   5 1.00       0.000000000000
      0.1238401694D+04  0.5517365048D-02
      0.1862900499D+03  0.4108882856D-01
      0.4225117635D+02  0.1822538213D+00
      0.1167655793D+02  0.4682845944D+00
      0.3593050648D+01  0.4457581734D+00
 S   1 1.00       0.000000000000
      0.4024514736D+00  0.1000000000D+01
 S   1 1.00       0.000000000000
      0.1309018267D+00  0.1000000000D+01
 P   3 1.00       0.000000000000
      0.9468097062D+01  0.5688833201D-01
      0.2010354514D+01  0.3129405934D+00
      0.5477100471D+00  0.7606501651D+00
 P   1 1.00       0.000000000000
      0.1526861379D+00  0.1000000000D+01
 D   1 1.00       0.000000000000
      0.8000000000D+00  0.1000000000D+01
 ****
      3 0
 S   5 1.00       0.000000000000
      0.1044982757D+05  0.5426595379D-02
      0.1571736522D+04  0.4062637813D-01
      0.3571206552D+03  0.1835974785D+00
      0.1002518594D+03  0.4743894877D+00
      0.3081272755D+02  0.4373518110D+00
 S   3 1.00       0.000000000000
      0.5192378943D+02 -0.9275415485D-01
      0.5704576098D+01  0.5638082554D+00
      0.2350837681D+01  0.5036704463D+00
 S   1 1.00       0.000000000000
      0.4460512467D+00  0.1000000000D+01
 S   1 1.00       0.000000000000
      0.1684885619D+00  0.1000000000D+01
 P   5 1.00       0.000000000000
      0.3076679057D+03 -0.8879702559D-02
      0.7210201552D+02 -0.6428407172D-01
      0.2253268026D+02 -0.2428873974D+00
      0.7899176544D+01 -0.4834083637D+00
      0.2876726832D+01 -0.3895256388D+00
 P   1 1.00       0.000000000000
      0.7745936396D+00  0.1000000000D+01
 P   1 1.00       0.000000000000
      0.2103769970D+00  0.1000000000D+01
 D   1 1.00       0.000000000000
      0.6500000000D+00  0.1000000000D+01
 ****
      4 0
 S   5 1.00       0.000000000000
      0.1238401694D+04  0.5517365048D-02
      0.1862900499D+03  0.4108882856D-01
      0.4225117635D+02  0.1822538213D+00
      0.1167655793D+02  0.4682845944D+00
      0.3593050648D+01  0.4457581734D+00
 S   1 1.00       0.000000000000
      0.4024514736D+00  0.1000000000D+01
 S   1 1.00       0.000000000000
      0.1309018267D+00  0.1000000000D+01
 P   3 1.00       0.000000000000
      0.9468097062D+01  0.5688833201D-01
      0.2010354514D+01  0.3129405934D+00
      0.5477100471D+00  0.7606501651D+00
 P   1 1.00       0.000000000000
      0.1526861379D+00  0.1000000000D+01
 D   1 1.00       0.000000000000
      0.8000000000D+00  0.1000000000D+01
 ****
      5 0
 S   5 1.00       0.000000000000
      0.1238401694D+04  0.5517365048D-02
      0.1862900499D+03  0.4108882856D-01
      0.4225117635D+02  0.1822538213D+00
      0.1167655793D+02  0.4682845944D+00
      0.3593050648D+01  0.4457581734D+00
 S   1 1.00       0.000000000000
      0.4024514736D+00  0.1000000000D+01
 S   1 1.00       0.000000000000
      0.1309018267D+00  0.1000000000D+01
 P   3 1.00       0.000000000000
      0.9468097062D+01  0.5688833201D-01
      0.2010354514D+01  0.3129405934D+00
      0.5477100471D+00  0.7606501651D+00
 P   1 1.00       0.000000000000
      0.1526861379D+00  0.1000000000D+01
 D   1 1.00       0.000000000000
      0.8000000000D+00  0.1000000000D+01
 ****
      6 0
 S   5 1.00       0.000000000000
      0.1238401694D+04  0.5517365048D-02
      0.1862900499D+03  0.4108882856D-01
      0.4225117635D+02  0.1822538213D+00
      0.1167655793D+02  0.4682845944D+00
      0.3593050648D+01  0.4457581734D+00
 S   1 1.00       0.000000000000
      0.4024514736D+00  0.1000000000D+01
 S   1 1.00       0.000000000000
      0.1309018267D+00  0.1000000000D+01
 P   3 1.00       0.000000000000
      0.9468097062D+01  0.5688833201D-01
      0.2010354514D+01  0.3129405934D+00
      0.5477100471D+00  0.7606501651D+00
 P   1 1.00       0.000000000000
      0.1526861379D+00  0.1000000000D+01
 D   1 1.00       0.000000000000
      0.8000000000D+00  0.1000000000D+01
 ****
      7 0
 S   5 1.00       0.000000000000
      0.1238401694D+04  0.5517365048D-02
      0.1862900499D+03  0.4108882856D-01
      0.4225117635D+02  0.1822538213D+00
      0.1167655793D+02  0.4682845944D+00
      0.3593050648D+01  0.4457581734D+00
 S   1 1.00       0.000000000000
      0.4024514736D+00  0.1000000000D+01
 S   1 1.00       0.000000000000
      0.1309018267D+00  0.1000000000D+01
 P   3 1.00       0.000000000000
      0.9468097062D+01  0.5688833201D-01
      0.2010354514D+01  0.3129405934D+00
      0.5477100471D+00  0.7606501651D+00
 P   1 1.00       0.000000000000
      0.1526861379D+00  0.1000000000D+01
 D   1 1.00       0.000000000000
      0.8000000000D+00  0.1000000000D+01
 ****
      8 0
 S   5 1.00       0.000000000000
      0.1712841585D+04 -0.5447799580D-02
      0.2576481268D+03 -0.4062717463D-01
      0.5845824585D+02 -0.1811196225D+00
      0.1619836791D+02 -0.4684397556D+00
      0.5005260081D+01 -0.4461684629D+00
 S   1 1.00       0.000000000000
      0.5873185657D+00  0.1000000000D+01
 S   1 1.00       0.000000000000
      0.1876459225D+00  0.1000000000D+01
 P   3 1.00       0.000000000000
      0.1357147023D+02 -0.5884811697D-01
      0.2925737287D+01 -0.3202462476D+00
      0.7992775075D+00 -0.7532822652D+00
 P   1 1.00       0.000000000000
      0.2195434803D+00  0.1000000000D+01
 D   1 1.00       0.000000000000
      0.1000000000D+01  0.1000000000D+01
 ****
      9 0
 S   5 1.00       0.000000000000
      0.1712841585D+04 -0.5447799580D-02
      0.2576481268D+03 -0.4062717463D-01
      0.5845824585D+02 -0.1811196225D+00
      0.1619836791D+02 -0.4684397556D+00
      0.5005260081D+01 -0.4461684629D+00
 S   1 1.00       0.000000000000
      0.5873185657D+00  0.1000000000D+01
 S   1 1.00       0.000000000000
      0.1876459225D+00  0.1000000000D+01
 P   3 1.00       0.000000000000
      0.1357147023D+02 -0.5884811697D-01
      0.2925737287D+01 -0.3202462476D+00
      0.7992775075D+00 -0.7532822652D+00
 P   1 1.00       0.000000000000
      0.2195434803D+00  0.1000000000D+01
 D   1 1.00       0.000000000000
      0.1000000000D+01  0.1000000000D+01
 ****
     10 0
 S   5 1.00       0.000000000000
      0.1238401694D+04  0.5517365048D-02
      0.1862900499D+03  0.4108882856D-01
      0.4225117635D+02  0.1822538213D+00
      0.1167655793D+02  0.4682845944D+00
      0.3593050648D+01  0.4457581734D+00
 S   1 1.00       0.000000000000
      0.4024514736D+00  0.1000000000D+01
 S   1 1.00       0.000000000000
      0.1309018267D+00  0.1000000000D+01
 P   3 1.00       0.000000000000
      0.9468097062D+01  0.5688833201D-01
      0.2010354514D+01  0.3129405934D+00
      0.5477100471D+00  0.7606501651D+00
 P   1 1.00       0.000000000000
      0.1526861379D+00  0.1000000000D+01
 D   1 1.00       0.000000000000
      0.8000000000D+00  0.1000000000D+01
 ****
     11 0
 S   5 1.00       0.000000000000
      0.1238401694D+04  0.5517365048D-02
      0.1862900499D+03  0.4108882856D-01
      0.4225117635D+02  0.1822538213D+00
      0.1167655793D+02  0.4682845944D+00
      0.3593050648D+01  0.4457581734D+00
 S   1 1.00       0.000000000000
      0.4024514736D+00  0.1000000000D+01
 S   1 1.00       0.000000000000
      0.1309018267D+00  0.1000000000D+01
 P   3 1.00       0.000000000000
      0.9468097062D+01  0.5688833201D-01
      0.2010354514D+01  0.3129405934D+00
      0.5477100471D+00  0.7606501651D+00
 P   1 1.00       0.000000000000
      0.1526861379D+00  0.1000000000D+01
 D   1 1.00       0.000000000000
      0.8000000000D+00  0.1000000000D+01
 ****
     12 0
 S   5 1.00       0.000000000000
      0.1044982757D+05  0.5426595379D-02
      0.1571736522D+04  0.4062637813D-01
      0.3571206552D+03  0.1835974785D+00
      0.1002518594D+03  0.4743894877D+00
      0.3081272755D+02  0.4373518110D+00
 S   3 1.00       0.000000000000
      0.5192378943D+02 -0.9275415485D-01
      0.5704576098D+01  0.5638082554D+00
      0.2350837681D+01  0.5036704463D+00
 S   1 1.00       0.000000000000
      0.4460512467D+00  0.1000000000D+01
 S   1 1.00       0.000000000000
      0.1684885619D+00  0.1000000000D+01
 P   5 1.00       0.000000000000
      0.3076679057D+03 -0.8879702559D-02
      0.7210201552D+02 -0.6428407172D-01
      0.2253268026D+02 -0.2428873974D+00
      0.7899176544D+01 -0.4834083637D+00
      0.2876726832D+01 -0.3895256388D+00
 P   1 1.00       0.000000000000
      0.7745936396D+00  0.1000000000D+01
 P   1 1.00       0.000000000000
      0.2103769970D+00  0.1000000000D+01
 D   1 1.00       0.000000000000
      0.6500000000D+00  0.1000000000D+01
 ****
     13 0
 S   5 1.00       0.000000000000
      0.1238401694D+04  0.5517365048D-02
      0.1862900499D+03  0.4108882856D-01
      0.4225117635D+02  0.1822538213D+00
      0.1167655793D+02  0.4682845944D+00
      0.3593050648D+01  0.4457581734D+00
 S   1 1.00       0.000000000000
      0.4024514736D+00  0.1000000000D+01
 S   1 1.00       0.000000000000
      0.1309018267D+00  0.1000000000D+01
 P   3 1.00       0.000000000000
      0.9468097062D+01  0.5688833201D-01
      0.2010354514D+01  0.3129405934D+00
      0.5477100471D+00  0.7606501651D+00
 P   1 1.00       0.000000000000
      0.1526861379D+00  0.1000000000D+01
 D   1 1.00       0.000000000000
      0.8000000000D+00  0.1000000000D+01
 ****
     14 0
 S   5 1.00       0.000000000000
      0.1238401694D+04  0.5517365048D-02
      0.1862900499D+03  0.4108882856D-01
      0.4225117635D+02  0.1822538213D+00
      0.1167655793D+02  0.4682845944D+00
      0.3593050648D+01  0.4457581734D+00
 S   1 1.00       0.000000000000
      0.4024514736D+00  0.1000000000D+01
 S   1 1.00       0.000000000000
      0.1309018267D+00  0.1000000000D+01
 P   3 1.00       0.000000000000
      0.9468097062D+01  0.5688833201D-01
      0.2010354514D+01  0.3129405934D+00
      0.5477100471D+00  0.7606501651D+00
 P   1 1.00       0.000000000000
      0.1526861379D+00  0.1000000000D+01
 D   1 1.00       0.000000000000
      0.8000000000D+00  0.1000000000D+01
 ****
     15 0
 S   5 1.00       0.000000000000
      0.1238401694D+04  0.5517365048D-02
      0.1862900499D+03  0.4108882856D-01
      0.4225117635D+02  0.1822538213D+00
      0.1167655793D+02  0.4682845944D+00
      0.3593050648D+01  0.4457581734D+00
 S   1 1.00       0.000000000000
      0.4024514736D+00  0.1000000000D+01
 S   1 1.00       0.000000000000
      0.1309018267D+00  0.1000000000D+01
 P   3 1.00       0.000000000000
      0.9468097062D+01  0.5688833201D-01
      0.2010354514D+01  0.3129405934D+00
      0.5477100471D+00  0.7606501651D+00
 P   1 1.00       0.000000000000
      0.1526861379D+00  0.1000000000D+01
 D   1 1.00       0.000000000000
      0.8000000000D+00  0.1000000000D+01
 ****
     16 0
 S   5 1.00       0.000000000000
      0.1238401694D+04  0.5517365048D-02
      0.1862900499D+03  0.4108882856D-01
      0.4225117635D+02  0.1822538213D+00
      0.1167655793D+02  0.4682845944D+00
      0.3593050648D+01  0.4457581734D+00
 S   1 1.00       0.000000000000
      0.4024514736D+00  0.1000000000D+01
 S   1 1.00       0.000000000000
      0.1309018267D+00  0.1000000000D+01
 P   3 1.00       0.000000000000
      0.9468097062D+01  0.5688833201D-01
      0.2010354514D+01  0.3129405934D+00
      0.5477100471D+00  0.7606501651D+00
 P   1 1.00       0.000000000000
      0.1526861379D+00  0.1000000000D+01
 D   1 1.00       0.000000000000
      0.8000000000D+00  0.1000000000D+01
 ****
     17 0
 S   3 1.00       0.000000000000
      0.1301070100D+02  0.3348548481D-01
      0.1962257200D+01  0.2347218709D+00
      0.4445379600D+00  0.8137702853D+00
 S   1 1.00       0.000000000000
      0.1219496200D+00  0.1000000000D+01
 P   1 1.00       0.000000000000
      0.8000000000D+00  0.1000000000D+01
 ****
     18 0
 S   3 1.00       0.000000000000
      0.1301070100D+02  0.3348548481D-01
      0.1962257200D+01  0.2347218709D+00
      0.4445379600D+00  0.8137702853D+00
 S   1 1.00       0.000000000000
      0.1219496200D+00  0.1000000000D+01
 P   1 1.00       0.000000000000
      0.8000000000D+00  0.1000000000D+01
 ****
     19 0
 S   3 1.00       0.000000000000
      0.1301070100D+02  0.3348548481D-01
      0.1962257200D+01  0.2347218709D+00
      0.4445379600D+00  0.8137702853D+00
 S   1 1.00       0.000000000000
      0.1219496200D+00  0.1000000000D+01
 P   1 1.00       0.000000000000
      0.8000000000D+00  0.1000000000D+01
 ****
     20 0
 S   3 1.00       0.000000000000
      0.1301070100D+02  0.3348548481D-01
      0.1962257200D+01  0.2347218709D+00
      0.4445379600D+00  0.8137702853D+00
 S   1 1.00       0.000000000000
      0.1219496200D+00  0.1000000000D+01
 P   1 1.00       0.000000000000
      0.8000000000D+00  0.1000000000D+01
 ****
     21 0
 S   3 1.00       0.000000000000
      0.1301070100D+02  0.3348548481D-01
      0.1962257200D+01  0.2347218709D+00
      0.4445379600D+00  0.8137702853D+00
 S   1 1.00       0.000000000000
      0.1219496200D+00  0.1000000000D+01
 P   1 1.00       0.000000000000
      0.8000000000D+00  0.1000000000D+01
 ****
     22 0
 S   3 1.00       0.000000000000
      0.1301070100D+02  0.3348548481D-01
      0.1962257200D+01  0.2347218709D+00
      0.4445379600D+00  0.8137702853D+00
 S   1 1.00       0.000000000000
      0.1219496200D+00  0.1000000000D+01
 P   1 1.00       0.000000000000
      0.8000000000D+00  0.1000000000D+01
 ****
     23 0
 S   3 1.00       0.000000000000
      0.1301070100D+02  0.3348548481D-01
      0.1962257200D+01  0.2347218709D+00
      0.4445379600D+00  0.8137702853D+00
 S   1 1.00       0.000000000000
      0.1219496200D+00  0.1000000000D+01
 P   1 1.00       0.000000000000
      0.8000000000D+00  0.1000000000D+01
 ****
     24 0
 S   3 1.00       0.000000000000
      0.1301070100D+02  0.3348548481D-01
      0.1962257200D+01  0.2347218709D+00
      0.4445379600D+00  0.8137702853D+00
 S   1 1.00       0.000000000000
      0.1219496200D+00  0.1000000000D+01
 P   1 1.00       0.000000000000
      0.8000000000D+00  0.1000000000D+01
 ****

   272 basis functions,   480 primitive gaussians,   288 cartesian basis functions
    64 alpha electrons       64 beta electrons
       nuclear repulsion energy      1195.8722717713 Hartrees.
 IExCor= 4639 DFT=T Ex+Corr=wB97XD ExCW=0 ScaHFX=  1.000000
 ScaDFX=  1.000000  1.000000  1.000000  1.000000 ScalE2=  1.000000  1.000000
 IRadAn=      5 IRanWt=     -1 IRanGd=            0 ICorTp=0 IEmpDi=121
 HFx  wShort=  0.000000 wLong=  0.200000 cFull=  0.222036 cShort=  0.000000 cLong=  0.777964
 DFx  wShort=  0.000000 wLong=  0.200000 cFull=  0.000000 cShort=  0.000000 cLong=  1.000000
 NAtoms=   24 NActive=   24 NUniq=   24 SFac= 1.00D+00 NAtFMM=   60 NAOKFM=F Big=F
 Integral buffers will be    131072 words long.
 Raffenetti 1 integral format.
 Two-electron integral symmetry is turned off.
 R6Disp:  Grimme-D2 Dispersion energy=       -0.0136233671 Hartrees.
 Nuclear repulsion after empirical dispersion term =     1195.8586484042 Hartrees.
 Leave Link  301 at Fri Mar  6 17:31:52 2026, MaxMem=  1610612736 cpu:               0.1 elap:               0.1
 (Enter /prod/precompiled/gaussian/16c2/g16/l302.exe)
 NPDir=0 NMtPBC=     1 NCelOv=     1 NCel=       1 NClECP=     1 NCelD=      1
         NCelK=      1 NCelE2=     1 NClLst=     1 CellRange=     0.0.
 One-electron integrals computed using PRISM.
   1 Symmetry operations used in ECPInt.
 ECPInt:  NShTT=    7750 NPrTT=   30142 LenC2=    6990 LenP2D=   18945.
 LDataN:  DoStor=T MaxTD1= 4 Len=   56
 NBasis=   272 RedAO= T EigKep=  2.30D-04  NBF=   272
 NBsUse=   272 1.00D-06 EigRej= -1.00D+00 NBFU=   272
 Precomputing XC quadrature grid using
 IXCGrd= 4 IRadAn=           5 IRanWt=          -1 IRanGd=           0 AccXCQ= 0.00D+00.
 Generated NRdTot=       0 NPtTot=           0 NUsed=           0 NTot=          32
 NSgBfM=   286   286   286   286   286 MxSgAt=    24 MxSgA2=    24.
 Leave Link  302 at Fri Mar  6 17:31:53 2026, MaxMem=  1610612736 cpu:               1.3 elap:               0.4
 (Enter /prod/precompiled/gaussian/16c2/g16/l303.exe)
 DipDrv:  MaxL=1.
 Leave Link  303 at Fri Mar  6 17:31:53 2026, MaxMem=  1610612736 cpu:               0.1 elap:               0.1
 (Enter /prod/precompiled/gaussian/16c2/g16/l308.exe)
 Leave Link  308 at Fri Mar  6 17:31:53 2026, MaxMem=  1610612736 cpu:               0.1 elap:               0.1
 (Enter /prod/precompiled/gaussian/16c2/g16/l401.exe)
 ExpMin= 1.22D-01 ExpMax= 1.04D+04 ExpMxC= 1.57D+03 IAcc=3 IRadAn=         5 AccDes= 0.00D+00
 Harris functional with IExCor= 4639 and IRadAn=       5 diagonalized for initial guess.
 HarFok:  IExCor= 4639 AccDes= 0.00D+00 IRadAn=         5 IDoV= 1 UseB2=F ITyADJ=14
 ICtDFT=  3500011 ScaDFX=  1.000000  1.000000  1.000000  1.000000
 FoFCou: FMM=F IPFlag=           8 FMFlag=      100000 FMFlg1=           0
         NFxFlg=           0 DoJE=T BraDBF=F KetDBF=T FulRan=T
         wScrn=  0.000000 ICntrl=       500 IOpCl=  0 I1Cent=   200000004 NGrid=           0
         NMat0=    1 NMatS0=      1 NMatT0=    0 NMatD0=    1 NMtDS0=    0 NMtDT0=    0
 Symmetry not used in FoFCou.
 Harris En= -1450.79503314817    
 JPrj=0 DoOrth=F DoCkMO=F.
 Leave Link  401 at Fri Mar  6 17:31:54 2026, MaxMem=  1610612736 cpu:               5.5 elap:               0.8
 (Enter /prod/precompiled/gaussian/16c2/g16/l502.exe)
 Two-electron integral symmetry not used.
 Closed shell SCF:
 Using DIIS extrapolation, IDIIS=  1040.
 NGot=  1610612736 LenX=  1610441690 LenY=  1610358305
 Requested convergence on RMS density matrix=1.00D-08 within 200 cycles.
 Requested convergence on MAX density matrix=1.00D-06.
 Requested convergence on             energy=1.00D-06.
 No special actions if energy rises.
 Fock matrices will be formed incrementally for  20 cycles.
 Integral accuracy reduced to 1.0D-05 until final iterations.

 Cycle   1  Pass 0  IDiag  1:
 FoFJK:  IHMeth= 1 ICntrl=       0 DoSepK=T KAlg= 0 I1Cent=           0 FoldK=F
 IRaf=         1 NMat=       1 IRICut=       1 DoRegI=T DoRafI=F ISym2E= 0 IDoP0=0 IntGTp=1.
 FoFCou: FMM=F IPFlag=           8 FMFlag=      100000 FMFlg1=           0
         NFxFlg=           0 DoJE=T BraDBF=F KetDBF=F FulRan=T
         wScrn=  0.000000 ICntrl=       500 IOpCl=  0 I1Cent=           0 NGrid=           0
         NMat0=    1 NMatS0=      1 NMatT0=    0 NMatD0=    1 NMtDS0=    0 NMtDT0=    0
 Symmetry not used in FoFCou.
 E= -1490.63347885243    
 DIIS: error= 5.08D-02 at cycle   1 NSaved=   1.
 NSaved= 1 IEnMin= 1 EnMin= -1490.63347885243     IErMin= 1 ErrMin= 5.08D-02
 ErrMax= 5.08D-02  0.00D+00 EMaxC= 1.00D-01 BMatC= 6.99D-01 BMatP= 6.99D-01
 IDIUse=3 WtCom= 4.92D-01 WtEn= 5.08D-01
 Coeff-Com:  0.100D+01
 Coeff-En:   0.100D+01
 Coeff:      0.100D+01
 Gap=     0.404 Goal=   None    Shift=    0.000
 GapD=    0.404 DampG=2.000 DampE=0.500 DampFc=1.0000 IDamp=-1.
 RMSDP=6.14D-03 MaxDP=2.67D-01              OVMax= 2.13D-01

 Cycle   2  Pass 0  IDiag  1:
 RMSU=  6.04D-03    CP:  9.59D-01
 E= -1490.76642617276     Delta-E=       -0.132947320323 Rises=F Damp=F
 DIIS: error= 2.55D-02 at cycle   2 NSaved=   2.
 NSaved= 2 IEnMin= 2 EnMin= -1490.76642617276     IErMin= 2 ErrMin= 2.55D-02
 ErrMax= 2.55D-02  0.00D+00 EMaxC= 1.00D-01 BMatC= 2.63D-01 BMatP= 6.99D-01
 IDIUse=3 WtCom= 7.45D-01 WtEn= 2.55D-01
 Coeff-Com:  0.358D+00 0.642D+00
 Coeff-En:   0.375D+00 0.625D+00
 Coeff:      0.362D+00 0.638D+00
 Gap=     0.397 Goal=   None    Shift=    0.000
 RMSDP=3.12D-03 MaxDP=1.21D-01 DE=-1.33D-01 OVMax= 1.78D-01

 Cycle   3  Pass 0  IDiag  1:
 RMSU=  2.04D-03    CP:  9.63D-01  6.10D-01
 E= -1491.00158419894     Delta-E=       -0.235158026184 Rises=F Damp=F
 DIIS: error= 9.48D-03 at cycle   3 NSaved=   3.
 NSaved= 3 IEnMin= 3 EnMin= -1491.00158419894     IErMin= 3 ErrMin= 9.48D-03
 ErrMax= 9.48D-03  0.00D+00 EMaxC= 1.00D-01 BMatC= 2.92D-02 BMatP= 2.63D-01
 IDIUse=3 WtCom= 9.05D-01 WtEn= 9.48D-02
 Coeff-Com:  0.562D-01 0.262D+00 0.681D+00
 Coeff-En:   0.000D+00 0.000D+00 0.100D+01
 Coeff:      0.508D-01 0.237D+00 0.712D+00
 Gap=     0.307 Goal=   None    Shift=    0.000
 RMSDP=1.07D-03 MaxDP=2.36D-02 DE=-2.35D-01 OVMax= 5.59D-02

 Cycle   4  Pass 0  IDiag  1:
 RMSU=  7.41D-04    CP:  9.57D-01  7.06D-01  7.66D-01
 E= -1491.03065865276     Delta-E=       -0.029074453822 Rises=F Damp=F
 DIIS: error= 3.89D-03 at cycle   4 NSaved=   4.
 NSaved= 4 IEnMin= 4 EnMin= -1491.03065865276     IErMin= 4 ErrMin= 3.89D-03
 ErrMax= 3.89D-03  0.00D+00 EMaxC= 1.00D-01 BMatC= 2.97D-03 BMatP= 2.92D-02
 IDIUse=3 WtCom= 9.61D-01 WtEn= 3.89D-02
 Coeff-Com: -0.364D-02 0.483D-01 0.301D+00 0.655D+00
 Coeff-En:   0.000D+00 0.000D+00 0.000D+00 0.100D+01
 Coeff:     -0.350D-02 0.465D-01 0.289D+00 0.668D+00
 Gap=     0.289 Goal=   None    Shift=    0.000
 RMSDP=3.05D-04 MaxDP=8.28D-03 DE=-2.91D-02 OVMax= 2.13D-02

 Cycle   5  Pass 0  IDiag  1:
 RMSU=  1.44D-04    CP:  9.56D-01  7.06D-01  8.68D-01  7.73D-01
 E= -1491.03385836789     Delta-E=       -0.003199715126 Rises=F Damp=F
 DIIS: error= 7.50D-04 at cycle   5 NSaved=   5.
 NSaved= 5 IEnMin= 5 EnMin= -1491.03385836789     IErMin= 5 ErrMin= 7.50D-04
 ErrMax= 7.50D-04  0.00D+00 EMaxC= 1.00D-01 BMatC= 1.56D-04 BMatP= 2.97D-03
 IDIUse=3 WtCom= 9.93D-01 WtEn= 7.50D-03
 Coeff-Com: -0.473D-02-0.394D-02 0.507D-01 0.245D+00 0.713D+00
 Coeff-En:   0.000D+00 0.000D+00 0.000D+00 0.000D+00 0.100D+01
 Coeff:     -0.469D-02-0.391D-02 0.504D-01 0.243D+00 0.715D+00
 Gap=     0.287 Goal=   None    Shift=    0.000
 RMSDP=8.31D-05 MaxDP=1.99D-03 DE=-3.20D-03 OVMax= 5.71D-03

 Cycle   6  Pass 0  IDiag  1:
 RMSU=  6.23D-05    CP:  9.56D-01  7.09D-01  8.70D-01  8.40D-01  8.90D-01
 E= -1491.03408343145     Delta-E=       -0.000225063560 Rises=F Damp=F
 DIIS: error= 3.56D-04 at cycle   6 NSaved=   6.
 NSaved= 6 IEnMin= 6 EnMin= -1491.03408343145     IErMin= 6 ErrMin= 3.56D-04
 ErrMax= 3.56D-04  0.00D+00 EMaxC= 1.00D-01 BMatC= 2.09D-05 BMatP= 1.56D-04
 IDIUse=3 WtCom= 9.96D-01 WtEn= 3.56D-03
 Coeff-Com: -0.649D-03-0.118D-01-0.404D-01-0.385D-01 0.251D+00 0.841D+00
 Coeff-En:   0.000D+00 0.000D+00 0.000D+00 0.000D+00 0.000D+00 0.100D+01
 Coeff:     -0.647D-03-0.118D-01-0.402D-01-0.384D-01 0.250D+00 0.841D+00
 Gap=     0.288 Goal=   None    Shift=    0.000
 RMSDP=4.15D-05 MaxDP=8.45D-04 DE=-2.25D-04 OVMax= 3.70D-03

 Cycle   7  Pass 0  IDiag  1:
 RMSU=  2.06D-05    CP:  9.56D-01  7.09D-01  8.78D-01  8.67D-01  1.06D+00
                    CP:  1.08D+00
 E= -1491.03413066072     Delta-E=       -0.000047229273 Rises=F Damp=F
 DIIS: error= 8.96D-05 at cycle   7 NSaved=   7.
 NSaved= 7 IEnMin= 7 EnMin= -1491.03413066072     IErMin= 7 ErrMin= 8.96D-05
 ErrMax= 8.96D-05  0.00D+00 EMaxC= 1.00D-01 BMatC= 1.58D-06 BMatP= 2.09D-05
 IDIUse=1 WtCom= 1.00D+00 WtEn= 0.00D+00
 Coeff-Com:  0.279D-03-0.332D-02-0.173D-01-0.364D-01 0.100D-01 0.215D+00
 Coeff-Com:  0.832D+00
 Coeff:      0.279D-03-0.332D-02-0.173D-01-0.364D-01 0.100D-01 0.215D+00
 Coeff:      0.832D+00
 Gap=     0.288 Goal=   None    Shift=    0.000
 RMSDP=1.43D-05 MaxDP=2.97D-04 DE=-4.72D-05 OVMax= 1.69D-03

 Cycle   8  Pass 0  IDiag  1:
 RMSU=  8.70D-06    CP:  9.56D-01  7.09D-01  8.79D-01  8.69D-01  1.10D+00
                    CP:  1.21D+00  1.19D+00
 E= -1491.03413676944     Delta-E=       -0.000006108717 Rises=F Damp=F
 DIIS: error= 5.39D-05 at cycle   8 NSaved=   8.
 NSaved= 8 IEnMin= 8 EnMin= -1491.03413676944     IErMin= 8 ErrMin= 5.39D-05
 ErrMax= 5.39D-05  0.00D+00 EMaxC= 1.00D-01 BMatC= 3.52D-07 BMatP= 1.58D-06
 IDIUse=1 WtCom= 1.00D+00 WtEn= 0.00D+00
 Coeff-Com:  0.122D-03 0.172D-02 0.468D-02-0.547D-03-0.511D-01-0.143D+00
 Coeff-Com:  0.181D+00 0.101D+01
 Coeff:      0.122D-03 0.172D-02 0.468D-02-0.547D-03-0.511D-01-0.143D+00
 Coeff:      0.181D+00 0.101D+01
 Gap=     0.288 Goal=   None    Shift=    0.000
 RMSDP=9.09D-06 MaxDP=1.57D-04 DE=-6.11D-06 OVMax= 1.10D-03

 Initial convergence to 1.0D-05 achieved.  Increase integral accuracy.
 Cycle   9  Pass 1  IDiag  1:
 E= -1491.03414003750     Delta-E=       -0.000003268065 Rises=F Damp=F
 DIIS: error= 1.29D-04 at cycle   1 NSaved=   1.
 NSaved= 1 IEnMin= 1 EnMin= -1491.03414003750     IErMin= 1 ErrMin= 1.29D-04
 ErrMax= 1.29D-04  0.00D+00 EMaxC= 1.00D-01 BMatC= 9.97D-07 BMatP= 9.97D-07
 IDIUse=3 WtCom= 9.99D-01 WtEn= 1.29D-03
 Coeff-Com:  0.100D+01
 Coeff-En:   0.100D+01
 Coeff:      0.100D+01
 Gap=     0.288 Goal=   None    Shift=    0.000
 RMSDP=9.09D-06 MaxDP=1.57D-04 DE=-3.27D-06 OVMax= 4.12D-04

 Cycle  10  Pass 1  IDiag  1:
 RMSU=  9.87D-05    CP:  1.00D+00
 E= -1491.03414118990     Delta-E=       -0.000001152393 Rises=F Damp=F
 DIIS: error= 1.32D-05 at cycle   2 NSaved=   2.
 NSaved= 2 IEnMin= 2 EnMin= -1491.03414118990     IErMin= 2 ErrMin= 1.32D-05
 ErrMax= 1.32D-05  0.00D+00 EMaxC= 1.00D-01 BMatC= 6.98D-08 BMatP= 9.97D-07
 IDIUse=1 WtCom= 1.00D+00 WtEn= 0.00D+00
 Coeff-Com:  0.498D-01 0.950D+00
 Coeff:      0.498D-01 0.950D+00
 Gap=     0.288 Goal=   None    Shift=    0.000
 RMSDP=5.64D-06 MaxDP=1.05D-04 DE=-1.15D-06 OVMax= 2.68D-04

 Cycle  11  Pass 1  IDiag  1:
 RMSU=  2.99D-06    CP:  1.00D+00  1.05D+00
 E= -1491.03414127830     Delta-E=       -0.000000088406 Rises=F Damp=F
 DIIS: error= 1.48D-05 at cycle   3 NSaved=   3.
 NSaved= 3 IEnMin= 3 EnMin= -1491.03414127830     IErMin= 2 ErrMin= 1.32D-05
 ErrMax= 1.48D-05  0.00D+00 EMaxC= 1.00D-01 BMatC= 6.54D-08 BMatP= 6.98D-08
 IDIUse=1 WtCom= 1.00D+00 WtEn= 0.00D+00
 Coeff-Com: -0.379D-01 0.501D+00 0.537D+00
 Coeff:     -0.379D-01 0.501D+00 0.537D+00
 Gap=     0.288 Goal=   None    Shift=    0.000
 RMSDP=1.61D-06 MaxDP=3.23D-05 DE=-8.84D-08 OVMax= 1.04D-04

 Cycle  12  Pass 1  IDiag  1:
 RMSU=  1.39D-06    CP:  1.00D+00  1.06D+00  9.02D-01
 E= -1491.03414136690     Delta-E=       -0.000000088601 Rises=F Damp=F
 DIIS: error= 6.25D-06 at cycle   4 NSaved=   4.
 NSaved= 4 IEnMin= 4 EnMin= -1491.03414136690     IErMin= 4 ErrMin= 6.25D-06
 ErrMax= 6.25D-06  0.00D+00 EMaxC= 1.00D-01 BMatC= 3.05D-09 BMatP= 6.54D-08
 IDIUse=1 WtCom= 1.00D+00 WtEn= 0.00D+00
 Coeff-Com:  0.213D-02-0.174D+00-0.106D+00 0.128D+01
 Coeff:      0.213D-02-0.174D+00-0.106D+00 0.128D+01
 Gap=     0.288 Goal=   None    Shift=    0.000
 RMSDP=1.16D-06 MaxDP=2.66D-05 DE=-8.86D-08 OVMax= 1.79D-04

 Cycle  13  Pass 1  IDiag  1:
 RMSU=  6.41D-07    CP:  1.00D+00  1.06D+00  1.11D+00  1.53D+00
 E= -1491.03414139388     Delta-E=       -0.000000026974 Rises=F Damp=F
 DIIS: error= 2.97D-06 at cycle   5 NSaved=   5.
 NSaved= 5 IEnMin= 5 EnMin= -1491.03414139388     IErMin= 5 ErrMin= 2.97D-06
 ErrMax= 2.97D-06  0.00D+00 EMaxC= 1.00D-01 BMatC= 1.35D-09 BMatP= 3.05D-09
 IDIUse=1 WtCom= 1.00D+00 WtEn= 0.00D+00
 Coeff-Com:  0.135D-01-0.242D+00-0.234D+00 0.534D+00 0.928D+00
 Coeff:      0.135D-01-0.242D+00-0.234D+00 0.534D+00 0.928D+00
 Gap=     0.288 Goal=   None    Shift=    0.000
 RMSDP=7.99D-07 MaxDP=2.03D-05 DE=-2.70D-08 OVMax= 1.25D-04

 Cycle  14  Pass 1  IDiag  1:
 RMSU=  2.53D-07    CP:  1.00D+00  1.06D+00  1.23D+00  1.92D+00  1.59D+00
 E= -1491.03414140256     Delta-E=       -0.000000008680 Rises=F Damp=F
 DIIS: error= 1.17D-06 at cycle   6 NSaved=   6.
 NSaved= 6 IEnMin= 6 EnMin= -1491.03414140256     IErMin= 6 ErrMin= 1.17D-06
 ErrMax= 1.17D-06  0.00D+00 EMaxC= 1.00D-01 BMatC= 3.94D-10 BMatP= 1.35D-09
 IDIUse=1 WtCom= 1.00D+00 WtEn= 0.00D+00
 Coeff-Com:  0.642D-02-0.837D-01-0.983D-01-0.114D-01 0.484D+00 0.703D+00
 Coeff:      0.642D-02-0.837D-01-0.983D-01-0.114D-01 0.484D+00 0.703D+00
 Gap=     0.288 Goal=   None    Shift=    0.000
 RMSDP=2.85D-07 MaxDP=8.34D-06 DE=-8.68D-09 OVMax= 4.36D-05

 Cycle  15  Pass 1  IDiag  1:
 RMSU=  9.88D-08    CP:  1.00D+00  1.06D+00  1.26D+00  2.05D+00  1.87D+00
                    CP:  1.08D+00
 E= -1491.03414140374     Delta-E=       -0.000000001178 Rises=F Damp=F
 DIIS: error= 4.25D-07 at cycle   7 NSaved=   7.
 NSaved= 7 IEnMin= 7 EnMin= -1491.03414140374     IErMin= 7 ErrMin= 4.25D-07
 ErrMax= 4.25D-07  0.00D+00 EMaxC= 1.00D-01 BMatC= 4.60D-11 BMatP= 3.94D-10
 IDIUse=1 WtCom= 1.00D+00 WtEn= 0.00D+00
 Coeff-Com: -0.217D-03 0.172D-01 0.834D-02-0.108D+00-0.612D-02 0.256D+00
 Coeff-Com:  0.833D+00
 Coeff:     -0.217D-03 0.172D-01 0.834D-02-0.108D+00-0.612D-02 0.256D+00
 Coeff:      0.833D+00
 Gap=     0.288 Goal=   None    Shift=    0.000
 RMSDP=1.02D-07 MaxDP=2.40D-06 DE=-1.18D-09 OVMax= 1.56D-05

 Cycle  16  Pass 1  IDiag  1:
 RMSU=  4.03D-08    CP:  1.00D+00  1.06D+00  1.27D+00  2.08D+00  1.97D+00
                    CP:  1.22D+00  1.09D+00
 E= -1491.03414140387     Delta-E=       -0.000000000138 Rises=F Damp=F
 DIIS: error= 2.09D-07 at cycle   8 NSaved=   8.
 NSaved= 8 IEnMin= 8 EnMin= -1491.03414140387     IErMin= 8 ErrMin= 2.09D-07
 ErrMax= 2.09D-07  0.00D+00 EMaxC= 1.00D-01 BMatC= 8.35D-12 BMatP= 4.60D-11
 IDIUse=1 WtCom= 1.00D+00 WtEn= 0.00D+00
 Coeff-Com: -0.101D-02 0.190D-01 0.171D-01-0.426D-01-0.736D-01-0.207D-02
 Coeff-Com:  0.343D+00 0.740D+00
 Coeff:     -0.101D-02 0.190D-01 0.171D-01-0.426D-01-0.736D-01-0.207D-02
 Coeff:      0.343D+00 0.740D+00
 Gap=     0.288 Goal=   None    Shift=    0.000
 RMSDP=3.36D-08 MaxDP=7.73D-07 DE=-1.38D-10 OVMax= 4.49D-06

 Cycle  17  Pass 1  IDiag  1:
 RMSU=  1.62D-08    CP:  1.00D+00  1.06D+00  1.27D+00  2.10D+00  1.99D+00
                    CP:  1.25D+00  1.22D+00  1.18D+00
 E= -1491.03414140392     Delta-E=       -0.000000000051 Rises=F Damp=F
 DIIS: error= 7.39D-08 at cycle   9 NSaved=   9.
 NSaved= 9 IEnMin= 9 EnMin= -1491.03414140392     IErMin= 9 ErrMin= 7.39D-08
 ErrMax= 7.39D-08  0.00D+00 EMaxC= 1.00D-01 BMatC= 9.43D-13 BMatP= 8.35D-12
 IDIUse=1 WtCom= 1.00D+00 WtEn= 0.00D+00
 Coeff-Com: -0.208D-03 0.177D-02 0.265D-02 0.615D-02-0.133D-01-0.398D-01
 Coeff-Com: -0.645D-01 0.145D+00 0.962D+00
 Coeff:     -0.208D-03 0.177D-02 0.265D-02 0.615D-02-0.133D-01-0.398D-01
 Coeff:     -0.645D-01 0.145D+00 0.962D+00
 Gap=     0.288 Goal=   None    Shift=    0.000
 RMSDP=1.52D-08 MaxDP=2.42D-07 DE=-5.09D-11 OVMax= 1.43D-06

 Cycle  18  Pass 1  IDiag  1:
 RMSU=  7.41D-09    CP:  1.00D+00  1.06D+00  1.27D+00  2.10D+00  2.00D+00
                    CP:  1.26D+00  1.27D+00  1.40D+00  1.19D+00
 E= -1491.03414140391     Delta-E=        0.000000000015 Rises=F Damp=F
 DIIS: error= 4.62D-08 at cycle  10 NSaved=  10.
 NSaved=10 IEnMin= 9 EnMin= -1491.03414140392     IErMin=10 ErrMin= 4.62D-08
 ErrMax= 4.62D-08  0.00D+00 EMaxC= 1.00D-01 BMatC= 2.71D-13 BMatP= 9.43D-13
 IDIUse=1 WtCom= 1.00D+00 WtEn= 0.00D+00
 Coeff-Com:  0.102D-03-0.283D-02-0.207D-02 0.106D-01 0.912D-02-0.151D-01
 Coeff-Com: -0.929D-01-0.879D-01 0.391D+00 0.790D+00
 Coeff:      0.102D-03-0.283D-02-0.207D-02 0.106D-01 0.912D-02-0.151D-01
 Coeff:     -0.929D-01-0.879D-01 0.391D+00 0.790D+00
 Gap=     0.288 Goal=   None    Shift=    0.000
 RMSDP=5.43D-09 MaxDP=9.78D-08 DE= 1.46D-11 OVMax= 4.99D-07

 SCF Done:  E(RwB97XD) =  -1491.03414140     A.U. after   18 cycles
            NFock= 18  Conv=0.54D-08     -V/T= 2.0052
 KE= 1.483286593400D+03 PE=-5.902622397960D+03 EE= 1.732443014751D+03
 Leave Link  502 at Fri Mar  6 17:32:20 2026, MaxMem=  1610612736 cpu:             184.5 elap:              25.5
 (Enter /prod/precompiled/gaussian/16c2/g16/l508.exe)
 QCSCF skips out because SCF is already converged.
 Leave Link  508 at Fri Mar  6 17:32:20 2026, MaxMem=  1610612736 cpu:               0.1 elap:               0.1
 (Enter /prod/precompiled/gaussian/16c2/g16/l801.exe)
 DoSCS=F DFT=T ScalE2(SS,OS)=  1.000000  1.000000
 ExpMin= 1.22D-01 ExpMax= 1.04D+04 ExpMxC= 1.57D+03 IAcc=3 IRadAn=         5 AccDes= 0.00D+00
 HarFok:  IExCor=  205 AccDes= 0.00D+00 IRadAn=         5 IDoV=-2 UseB2=F ITyADJ=14
 ICtDFT= 12500011 ScaDFX=  1.000000  1.000000  1.000000  1.000000
 GSVD:  LWork=        -768 too small for GESVD, short by        3240 words or        3240 for optimal perf.
 Largest valence mixing into a core orbital is  7.58D-05
 Largest core mixing into a valence orbital is  5.66D-05
 Range of M.O.s used for correlation:    25   272
 NBasis=   272 NAE=    64 NBE=    64 NFC=    24 NFV=     0
 NROrb=    248 NOA=    40 NOB=    40 NVA=   208 NVB=   208

 **** Warning!!: The largest alpha MO coefficient is  0.12517133D+02

 Leave Link  801 at Fri Mar  6 17:32:20 2026, MaxMem=  1610612736 cpu:               0.4 elap:               0.1
 (Enter /prod/precompiled/gaussian/16c2/g16/l914.exe)
 RHF ground state
 Two-electron integral symmetry not used.
 MDV=  1610612736 DFT=T DoStab=F Mixed=T DoRPA=T DoScal=F NonHer=T
 Making orbital integer symmetry assigments:
    40 initial guesses have been made.
 Convergence on wavefunction:    0.001000000000000
 Davidson Disk Diagonalization:  ConvIn= 1.00D-03 SkipCon=T Conv= 1.00D-03.
 Max sub-space:  2000 roots to seek:    40 dimension of matrix:        16640
 Iteration     1 Dimension    40 NMult     0 NNew     40
 CISAX will form    40 AO SS matrices at one time.
 NMat=    40 NSing=    40 JSym2X= 0.
 FoFJK:  IHMeth= 1 ICntrl=       0 DoSepK=T KAlg= 0 I1Cent=           0 FoldK=F
 IRaf=         1 NMat=      80 IRICut=       1 DoRegI=T DoRafI=F ISym2E= 0 IDoP0=3 IntGTp=3.
 FoFCou: FMM=F IPFlag=           8 FMFlag=      100000 FMFlg1=           0
         NFxFlg=           0 DoJE=F BraDBF=F KetDBF=F FulRan=T
         wScrn=  0.000000 ICntrl=       500 IOpCl=  0 I1Cent=           0 NGrid=           0
         NMat0=   40 NMatS0=     40 NMatT0=    0 NMatD0=   40 NMtDS0=    0 NMtDT0=    0
 Symmetry not used in FoFCou.
 New state      5 was old state      7
 New state      7 was old state      5
 New state      9 was old state     10
 New state     10 was old state     20
 Excitation Energies [eV] at current iteration:
 Root      1 :     2.779595070457479
 Root      2 :     4.612392580495676
 Root      3 :     4.800477727410675
 Root      4 :     5.033980986434677
 Root      5 :     5.703121843380131
 Root      6 :     5.725791580551218
 Root      7 :     5.930510601350663
 Root      8 :     5.948683518149052
 Root      9 :     6.272415255446228
 Root     10 :     6.297723145233499
 Root     11 :     6.439816479050393
 Root     12 :     6.446374928233990
 Root     13 :     6.730515697896609
 Root     14 :     7.002165327455794
 Root     15 :     7.087869384977155
 Root     16 :     7.320910298400647
 Root     17 :     7.461789581287929
 Root     18 :     7.467539539313816
 Root     19 :     7.578442753133894
 Root     20 :     7.679373930948091
 Root     21 :     7.726876365326143
 Root     22 :     7.756711177503044
 Root     23 :     7.894815053753780
 Root     24 :     7.986698831935103
 Root     25 :     8.053610766405997
 Root     26 :     8.120760170423393
 Root     27 :     8.159952508509051
 Root     28 :     8.310470320522951
 Root     29 :     8.329286634099411
 Root     30 :     8.339840000676354
 Root     31 :     8.434597497019897
 Root     32 :     8.512296014398505
 Root     33 :     8.589505239806256
 Root     34 :     8.747232531396470
 Root     35 :     8.776144009959056
 Root     36 :     8.816178921293476
 Root     37 :     8.842278353074589
 Root     38 :     8.864599683198428
 Root     39 :     9.186386212342601
 Root     40 :     9.296583151441974
 Iteration     2 Dimension    60 NMult    40 NNew     20
 CISAX will form    20 AO SS matrices at one time.
 NMat=    20 NSing=    20 JSym2X= 0.
 Root      1 not converged, maximum delta is    0.030660908209248
 Root      2 not converged, maximum delta is    0.187859289016560
 Root      3 not converged, maximum delta is    0.034608046880120
 Root      4 not converged, maximum delta is    0.187515749440521
 Root      5 not converged, maximum delta is    0.205435272827070
 Root      6 not converged, maximum delta is    0.088571587297933
 Root      7 not converged, maximum delta is    0.164383494786919
 Root      8 not converged, maximum delta is    0.117124529233134
 New state      9 was old state     10
 Root      9 not converged, maximum delta is    0.087362476282521
 New state     10 was old state      9
 Root     10 not converged, maximum delta is    0.068785584592956
 Excitation Energies [eV] at current iteration:
 Root      1 :     2.620416565832273   Change is   -0.159178504625206
 Root      2 :     4.345964768669623   Change is   -0.266427811826053
 Root      3 :     4.699306397884176   Change is   -0.101171329526498
 Root      4 :     4.849069880705451   Change is   -0.184911105729225
 Root      5 :     5.478545172456988   Change is   -0.224576670923144
 Root      6 :     5.589916924840157   Change is   -0.135874655711061
 Root      7 :     5.711058336678470   Change is   -0.219452264672193
 Root      8 :     5.743004394737552   Change is   -0.205679123411499
 Root      9 :     6.084171842388872   Change is   -0.213551302844627
 Root     10 :     6.145812628018045   Change is   -0.126602627428183
 Iteration     3 Dimension    80 NMult    60 NNew     20
 CISAX will form    20 AO SS matrices at one time.
 NMat=    20 NSing=    20 JSym2X= 0.
 Root      1 not converged, maximum delta is    0.005607351304471
 Root      2 not converged, maximum delta is    0.006768993393077
 Root      3 not converged, maximum delta is    0.006048651932041
 Root      4 not converged, maximum delta is    0.009364440487700
 Root      5 not converged, maximum delta is    0.015497501933509
 Root      6 not converged, maximum delta is    0.020933351972893
 Root      7 not converged, maximum delta is    0.027661559242891
 Root      8 not converged, maximum delta is    0.018894945455696
 Root      9 not converged, maximum delta is    0.045250462931701
 Root     10 not converged, maximum delta is    0.042166718879411
 Excitation Energies [eV] at current iteration:
 Root      1 :     2.610225566392689   Change is   -0.010190999439584
 Root      2 :     4.329781188889176   Change is   -0.016183579780447
 Root      3 :     4.691925369771241   Change is   -0.007381028112936
 Root      4 :     4.838518570818202   Change is   -0.010551309887249
 Root      5 :     5.460198257495843   Change is   -0.018346914961145
 Root      6 :     5.574700220152604   Change is   -0.015216704687553
 Root      7 :     5.690143511899151   Change is   -0.020914824779318
 Root      8 :     5.728070925113367   Change is   -0.014933469624185
 Root      9 :     6.060677482693110   Change is   -0.023494359695762
 Root     10 :     6.126750345241795   Change is   -0.019062282776250
 Iteration     4 Dimension   100 NMult    80 NNew     20
 CISAX will form    20 AO SS matrices at one time.
 NMat=    20 NSing=    20 JSym2X= 0.
 Root      1 not converged, maximum delta is    0.001241171547516
 Root      2 not converged, maximum delta is    0.001744379705678
 Root      3 not converged, maximum delta is    0.001426614698699
 Root      4 not converged, maximum delta is    0.002824119119041
 Root      5 not converged, maximum delta is    0.003630834298388
 Root      6 not converged, maximum delta is    0.002629841813177
 Root      7 not converged, maximum delta is    0.003607437887286
 Root      8 not converged, maximum delta is    0.002710283131581
 Root      9 not converged, maximum delta is    0.016816912647661
 Root     10 not converged, maximum delta is    0.030543770579544
 Excitation Energies [eV] at current iteration:
 Root      1 :     2.609760153558145   Change is   -0.000465412834544
 Root      2 :     4.328813522217914   Change is   -0.000967666671262
 Root      3 :     4.691417431845387   Change is   -0.000507937925853
 Root      4 :     4.837669280645013   Change is   -0.000849290173189
 Root      5 :     5.458550687405600   Change is   -0.001647570090243
 Root      6 :     5.573525854669088   Change is   -0.001174365483516
 Root      7 :     5.688025313170176   Change is   -0.002118198728977
 Root      8 :     5.726895517436700   Change is   -0.001175407676667
 Root      9 :     6.057356546499933   Change is   -0.003320936193177
 Root     10 :     6.123142360377018   Change is   -0.003607984864778
 Iteration     5 Dimension   120 NMult   100 NNew     20
 CISAX will form    20 AO SS matrices at one time.
 NMat=    20 NSing=    20 JSym2X= 0.
 Root      1 has converged.
 Root      2 has converged.
 Root      3 has converged.
 Root      4 has converged.
 Root      5 has converged.
 Root      6 has converged.
 Root      7 has converged.
 Root      8 has converged.
 Root      9 not converged, maximum delta is    0.003891645651525
 Root     10 not converged, maximum delta is    0.008875190814239
 Excitation Energies [eV] at current iteration:
 Root      1 :     2.609743598798703   Change is   -0.000016554759442
 Root      2 :     4.328764764111678   Change is   -0.000048758106237
 Root      3 :     4.691390773199222   Change is   -0.000026658646166
 Root      4 :     4.837625338169151   Change is   -0.000043942475861
 Root      5 :     5.458425920731069   Change is   -0.000124766674530
 Root      6 :     5.573455100302148   Change is   -0.000070754366940
 Root      7 :     5.687892381998640   Change is   -0.000132931171536
 Root      8 :     5.726826365477629   Change is   -0.000069151959070
 Root      9 :     6.056978520567217   Change is   -0.000378025932716
 Root     10 :     6.122722814622857   Change is   -0.000419545754161
 Iteration     6 Dimension   124 NMult   120 NNew      4
 CISAX will form     4 AO SS matrices at one time.
 NMat=     4 NSing=     4 JSym2X= 0.
 Root      1 has converged.
 Root      2 has converged.
 Root      3 has converged.
 Root      4 has converged.
 Root      5 has converged.
 Root      6 has converged.
 Root      7 has converged.
 Root      8 has converged.
 Root      9 has converged.
 Root     10 not converged, maximum delta is    0.002082526402459
 Excitation Energies [eV] at current iteration:
 Root      1 :     2.609743572003885   Change is   -0.000000026794818
 Root      2 :     4.328764655391655   Change is   -0.000000108720022
 Root      3 :     4.691390758104702   Change is   -0.000000015094520
 Root      4 :     4.837625266119270   Change is   -0.000000072049882
 Root      5 :     5.458423182941741   Change is   -0.000002737789328
 Root      6 :     5.573453753632511   Change is   -0.000001346669637
 Root      7 :     5.687891596214350   Change is   -0.000000785784289
 Root      8 :     5.726826315420117   Change is   -0.000000050057513
 Root      9 :     6.056938917704180   Change is   -0.000039602863037
 Root     10 :     6.122687131731202   Change is   -0.000035682891655
 Iteration     7 Dimension   126 NMult   124 NNew      2
 CISAX will form     2 AO SS matrices at one time.
 NMat=     2 NSing=     2 JSym2X= 0.
 Root      1 has converged.
 Root      2 has converged.
 Root      3 has converged.
 Root      4 has converged.
 Root      5 has converged.
 Root      6 has converged.
 Root      7 has converged.
 Root      8 has converged.
 Root      9 has converged.
 Root     10 has converged.
 Excitation Energies [eV] at current iteration:
 Root      1 :     2.609743571914172   Change is   -0.000000000089713
 Root      2 :     4.328764618957217   Change is   -0.000000036434438
 Root      3 :     4.691390758055900   Change is   -0.000000000048802
 Root      4 :     4.837625232787743   Change is   -0.000000033331527
 Root      5 :     5.458423182826482   Change is   -0.000000000115259
 Root      6 :     5.573453627723917   Change is   -0.000000125908594
 Root      7 :     5.687891596138356   Change is   -0.000000000075994
 Root      8 :     5.726826279962554   Change is   -0.000000035457563
 Root      9 :     6.056938917569636   Change is   -0.000000000134543
 Root     10 :     6.122682599582700   Change is   -0.000004532148501
 Convergence achieved on expansion vectors.
 ***********************************************************************
 Excited states from <AA,BB:AA,BB> singles matrix:
 ***********************************************************************
 
 1PDM for each excited state written to RWF  633
 Ground to excited state transition densities written to RWF  633
 Ground to excited state transition electric dipole moments (Au):
       state          X           Y           Z        Dip. S.      Osc.
         1         0.0004     -0.0004      0.0001      0.0000      0.0000
         2         0.8462     -1.7222      0.2986      3.7712      0.3999
         3        -0.0012      0.0004     -0.0001      0.0000      0.0000
         4        -0.8660      0.6849      0.0556      1.2221      0.1448
         5         0.0003     -0.0003     -0.0004      0.0000      0.0000
         6        -0.6313     -0.2251      0.2484      0.5109      0.0698
         7         0.0018     -0.0002     -0.0011      0.0000      0.0000
         8        -0.6149      0.2614      0.2172      0.4936      0.0693
         9        -0.0023      0.0021     -0.0001      0.0000      0.0000
        10         1.0535     -0.6003     -0.1982      1.5095      0.2264
 Ground to excited state transition velocity dipole moments (Au):
       state          X           Y           Z        Dip. S.      Osc.
         1        -0.0000      0.0000     -0.0000      0.0000      0.0000
         2        -0.1260      0.2719     -0.0517      0.0925      0.3876
         3         0.0002     -0.0001      0.0000      0.0000      0.0000
         4         0.1509     -0.1100     -0.0074      0.0349      0.1310
         5        -0.0001      0.0001      0.0001      0.0000      0.0000
         6         0.1267      0.0471     -0.0398      0.0199      0.0647
         7        -0.0004      0.0000      0.0002      0.0000      0.0000
         8         0.1408     -0.0506     -0.0469      0.0246      0.0779
         9         0.0005     -0.0004      0.0000      0.0000      0.0000
        10        -0.2324      0.1293      0.0476      0.0730      0.2163
 Ground to excited state transition magnetic dipole moments (Au):
       state          X           Y           Z
         1         0.9039     -0.6058      0.1673
         2        -0.0627     -0.0971     -0.3564
         3         0.3514      0.2342      1.0152
         4        -0.0405     -0.0498     -0.0877
         5         0.5173      0.2379      1.1631
         6        -0.0832     -0.1229     -0.4080
         7         0.4635      0.3268      0.7259
         8        -0.1180     -0.1409     -0.2028
         9         0.8268     -0.1076      0.7887
        10         0.1388      0.1618      0.2290
 Ground to excited state transition velocity quadrupole moments (Au):
       state          XX          YY          ZZ          XY          XZ          YZ
         1         0.0415      0.0716      0.0568     -0.0790      0.0491      0.0537
         2         0.6028      1.2614      0.0220     -0.9427      0.1502     -0.1777
         3         0.3545     -0.5034     -0.0405     -0.1378     -0.0378      0.1981
         4        -0.7213     -0.5101      0.0031      0.6130     -0.0142      0.0061
         5         0.3667     -0.7379     -0.0661     -0.2068     -0.0193      0.2615
         6        -0.6066      0.2194      0.0171      0.1817      0.0687     -0.1031
         7         0.9888      0.0885     -0.0327     -0.6826     -0.1186      0.2215
         8        -0.6702     -0.2352      0.0197      0.4457      0.0821     -0.0974
         9         0.4443     -0.0794     -0.0034     -0.3551      0.0306      0.2388
        10         1.1088      0.5999     -0.0200     -0.8467     -0.0642      0.0827
 <0|del|b> * <b|rxdel|0> + <0|del|b> * <b|delr+rdel|0>
 Rotatory Strengths (R) in cgs (10**-40 erg-esu-cm/Gauss)
       state          XX          YY          ZZ    R(velocity)    E-M Angle
         1        -0.1055     -0.1413     -0.2020     -0.1496       90.00
         2        -0.2262     -0.0151     -0.1110     -0.1174       90.00
         3         0.0097      0.2917      0.0347      0.1120       90.00
         4         0.0883     -0.0418     -0.0033      0.0144       90.00
         5         0.1928      0.1509     -0.0028      0.1136       90.00
         6        -0.0058     -0.1888     -0.0419     -0.0788       90.00
         7         0.0428      0.0899     -0.1534     -0.0069       90.00
         8        -0.1821      0.1363      0.1089      0.0210       90.00
         9         0.1076      0.8553      0.5079      0.4903       51.88
        10        -0.2991     -0.4193     -0.6965     -0.4716       90.31
 1/2[<0|r|b>*<b|rxdel|0> + (<0|rxdel|b>*<b|r|0>)*]
 Rotatory Strengths (R) in cgs (10**-40 erg-esu-cm/Gauss)
       state          XX          YY          ZZ     R(length)
         1        -0.2320     -0.1924     -0.0075     -0.1440
         2        37.5163   -118.2489     75.2434     -1.8297
         3         0.2950     -0.0728      0.0751      0.0991
         4       -24.8093     24.1140      3.4461      0.9170
         5        -0.1038      0.0565      0.3566      0.1031
         6       -37.1282    -19.5584     71.6601      4.9912
         7        -0.5838      0.0518      0.5401      0.0027
         8       -51.3274     26.0587     31.1525      1.9613
         9         1.3542      0.1564      0.0677      0.5261
        10      -103.4223     68.6858     32.0939     -0.8809
  1/2[<0|del|b>*<b|r|0> + (<0|r|b>*<b|del|0>)*] (Au)
       state          X           Y           Z        Dip. S.   Osc.(frdel)
         1        -0.0000     -0.0000     -0.0000      0.0000      0.0000
         2        -0.1066     -0.4683     -0.0154      0.5903      0.3936
         3        -0.0000     -0.0000     -0.0000      0.0000      0.0000
         4        -0.1307     -0.0754     -0.0004      0.2065      0.1376
         5        -0.0000     -0.0000     -0.0000      0.0000      0.0000
         6        -0.0800     -0.0106     -0.0099      0.1005      0.0670
         7        -0.0000     -0.0000     -0.0000      0.0000      0.0000
         8        -0.0866     -0.0132     -0.0102      0.1100      0.0733
         9        -0.0000     -0.0000     -0.0000      0.0000      0.0000
        10        -0.2449     -0.0776     -0.0094      0.3319      0.2213

 Excitation energies and oscillator strengths:
 
 Excited state symmetry could not be determined.
 Excited State   1:      Singlet-?Sym    2.6097 eV  475.08 nm  f=0.0000  <S**2>=0.000
      25 -> 65        -0.01038
      25 -> 69        -0.00831
      25 -> 78         0.00273
      25 -> 91        -0.00155
      25 -> 99        -0.00121
      25 ->155        -0.00113
      25 ->162        -0.00107
      27 -> 65         0.00146
      30 -> 83         0.00101
      30 -> 87         0.00109
      34 -> 68         0.00176
      34 -> 70        -0.00104
      34 -> 83        -0.00190
      35 -> 68        -0.00213
      35 -> 90        -0.00139
      36 -> 65         0.00206
      36 -> 82         0.00162
      37 -> 69         0.00129
      37 -> 91         0.00120
      38 -> 66        -0.00156
      38 -> 68         0.00234
      38 -> 83        -0.00120
      39 -> 65        -0.00113
      39 -> 69         0.00131
      39 -> 82        -0.00167
      39 -> 86        -0.00107
      39 ->262        -0.00103
      40 -> 66         0.00145
      40 -> 68        -0.00141
      41 -> 65        -0.00253
      41 -> 69        -0.00354
      41 -> 82         0.00317
      43 -> 65         0.00212
      43 -> 69         0.00151
      43 -> 91         0.00127
      44 -> 66        -0.00164
      44 -> 68        -0.00112
      44 -> 77        -0.00108
      44 -> 83         0.00284
      44 -> 87         0.00140
      44 -> 92         0.00166
      44 -> 97        -0.00144
      44 ->100         0.00133
      44 ->102         0.00102
      44 ->144        -0.00152
      44 ->148        -0.00102
      44 ->158        -0.00181
      44 ->170         0.00114
      44 ->228        -0.00105
      45 -> 68         0.00372
      45 -> 70        -0.00178
      45 -> 80         0.00106
      45 -> 83        -0.00226
      45 -> 84         0.00189
      45 -> 92        -0.00115
      46 -> 65        -0.00922
      46 -> 69        -0.00678
      46 -> 71        -0.00182
      46 -> 82         0.00125
      46 -> 85         0.00137
      46 -> 86         0.00170
      46 -> 91        -0.00107
      47 -> 65         0.00482
      47 -> 69         0.00230
      50 -> 68        -0.00439
      50 -> 79        -0.00108
      50 -> 80        -0.00310
      50 -> 84        -0.00153
      50 -> 88         0.00262
      50 -> 90        -0.00400
      50 -> 94         0.00125
      50 -> 97         0.00275
      50 ->102         0.00124
      50 ->109        -0.00136
      50 ->112        -0.00123
      50 ->113         0.00132
      50 ->117        -0.00199
      50 ->128         0.00134
      50 ->144        -0.00113
      50 ->148        -0.00150
      50 ->158        -0.00188
      50 ->170         0.00103
      50 ->183        -0.00100
      50 ->189        -0.00104
      50 ->246         0.00116
      51 -> 68         0.00116
      51 -> 90         0.00103
      51 -> 94        -0.00106
      51 -> 97        -0.00140
      52 -> 68        -0.00305
      52 -> 83         0.00263
      52 -> 88        -0.00124
      52 -> 92         0.00111
      52 ->158        -0.00112
      53 -> 65         0.01085
      53 -> 69         0.00697
      53 -> 82        -0.00291
      54 -> 72        -0.00163
      54 -> 86         0.00193
      54 -> 91         0.00121
      55 -> 68        -0.00661
      55 -> 73         0.00128
      55 -> 74         0.00113
      55 -> 77        -0.00109
      55 -> 80        -0.00104
      55 -> 84        -0.00109
      55 -> 87        -0.00100
      55 -> 90        -0.00516
      55 -> 94         0.00116
      55 -> 97         0.00149
      55 ->109        -0.00124
      55 ->113         0.00104
      55 ->117        -0.00143
      56 -> 65        -0.02499
      56 -> 69        -0.01158
      56 -> 78         0.00171
      58 -> 65         0.07888
      58 -> 67         0.00221
      58 -> 69         0.03409
      58 -> 71         0.00272
      58 -> 76         0.00223
      58 -> 78        -0.00368
      58 -> 86        -0.00252
      58 -> 91         0.00203
      58 -> 99         0.00269
      58 ->101        -0.00190
      58 ->110         0.00118
      58 ->119         0.00157
      58 ->123         0.00111
      58 ->126         0.00234
      58 ->131        -0.00157
      58 ->133        -0.00111
      58 ->137        -0.00108
      58 ->145        -0.00120
      58 ->146         0.00128
      58 ->154        -0.00155
      58 ->160        -0.00134
      58 ->164         0.00100
      58 ->182         0.00112
      59 -> 66         0.00656
      59 -> 68        -0.00702
      59 -> 74         0.00163
      59 -> 77        -0.00229
      59 -> 79        -0.00165
      59 -> 92         0.00161
      59 -> 94        -0.00116
      59 -> 95        -0.00139
      59 ->100         0.00260
      59 ->115        -0.00108
      59 ->130         0.00123
      60 -> 65         0.12313
      60 -> 67        -0.00188
      60 -> 69         0.04134
      60 -> 71         0.00228
      60 -> 75        -0.00124
      60 -> 76         0.00279
      60 -> 78        -0.00284
      60 -> 81        -0.00136
      60 -> 86        -0.00136
      60 -> 91         0.00330
      60 -> 93        -0.00165
      60 -> 99         0.00223
      60 ->116         0.00101
      60 ->119         0.00160
      60 ->123         0.00169
      60 ->126         0.00185
      60 ->131        -0.00148
      60 ->143        -0.00124
      60 ->146         0.00118
      60 ->160        -0.00108
      60 ->166         0.00105
      60 ->182         0.00104
      61 -> 66         0.00765
      61 -> 68         0.00217
      62 -> 65         0.09452
      62 -> 67         0.00839
      62 -> 69         0.03202
      62 -> 71         0.00149
      62 -> 75        -0.00104
      62 -> 76         0.00177
      62 -> 78        -0.00211
      62 -> 82        -0.00102
      62 -> 86        -0.00163
      62 -> 91         0.00198
      62 -> 99         0.00158
      62 ->126         0.00122
      63 -> 66         0.01057
      63 -> 68        -0.00828
      63 -> 77        -0.00232
      63 -> 79        -0.00130
      63 -> 90        -0.00108
      64 -> 65         0.65952
      64 -> 67        -0.01098
      64 -> 69         0.17812
      64 -> 71         0.00910
      64 -> 72        -0.00123
      64 -> 75        -0.00548
      64 -> 76         0.01028
      64 -> 78        -0.00575
      64 -> 81        -0.00402
      64 -> 82        -0.00864
      64 -> 85         0.00281
      64 -> 86        -0.00838
      64 -> 89         0.00181
      64 -> 91         0.00856
      64 -> 93        -0.00231
      64 -> 96         0.00162
      64 -> 98         0.00120
      64 -> 99         0.00638
      64 ->101        -0.00181
      64 ->104         0.00153
      64 ->108         0.00269
      64 ->110         0.00204
      64 ->116         0.00104
      64 ->118         0.00114
      64 ->119         0.00351
      64 ->123         0.00369
      64 ->126         0.00542
      64 ->131        -0.00413
      64 ->133        -0.00235
      64 ->137        -0.00166
      64 ->140        -0.00143
      64 ->143        -0.00344
      64 ->145        -0.00209
      64 ->146         0.00424
      64 ->150         0.00191
      64 ->154        -0.00462
      64 ->155         0.00196
      64 ->160        -0.00316
      64 ->164         0.00222
      64 ->166         0.00327
      64 ->169         0.00104
      64 ->182         0.00322
      64 ->223         0.00120
      64 ->239        -0.00124
      64 ->240        -0.00131
      64 ->262        -0.00143
      25 <- 65        -0.00535
      25 <- 69        -0.00504
      25 <- 78         0.00196
      25 <- 91        -0.00104
      27 <- 65         0.00105
      34 <- 83        -0.00172
      36 <- 65         0.00215
      36 <- 69         0.00199
      36 <- 82         0.00116
      37 <- 65        -0.00160
      37 <- 69        -0.00147
      39 <- 65        -0.00256
      39 <- 69        -0.00168
      40 <- 83         0.00112
      41 <- 65         0.00416
      41 <- 69         0.00320
      41 <- 78        -0.00108
      41 <- 82         0.00180
      42 <- 68         0.00110
      42 <- 97        -0.00127
      42 <-105         0.00106
      43 <- 91         0.00111
      44 <- 83         0.00236
      44 <- 84         0.00140
      44 <- 88        -0.00117
      44 <- 95         0.00192
      44 <- 97        -0.00307
      44 <-100        -0.00149
      44 <-102         0.00141
      44 <-105         0.00235
      44 <-115         0.00236
      44 <-122         0.00246
      44 <-144        -0.00116
      44 <-163        -0.00131
      44 <-228        -0.00148
      45 <- 70        -0.00122
      45 <- 83        -0.00179
      45 <- 97         0.00142
      46 <- 65         0.00365
      46 <- 69         0.00183
      46 <- 85         0.00106
      49 <- 71        -0.00133
      49 <- 82         0.00106
      50 <- 68        -0.00145
      50 <- 80        -0.00206
      50 <- 84        -0.00111
      50 <- 87        -0.00126
      50 <- 88         0.00224
      50 <- 90        -0.00291
      50 <- 94         0.00268
      50 <- 95        -0.00247
      50 <- 97         0.00427
      50 <-105        -0.00144
      50 <-122        -0.00110
      50 <-144         0.00109
      50 <-222         0.00128
      50 <-246         0.00117
      51 <- 90         0.00145
      51 <- 94        -0.00196
      51 <- 95         0.00253
      51 <- 97        -0.00347
      51 <-100        -0.00147
      51 <-105         0.00202
      51 <-115         0.00102
      51 <-122         0.00180
      52 <- 83         0.00141
      52 <- 84         0.00165
      52 <- 88        -0.00138
      52 <- 95         0.00200
      52 <- 97        -0.00250
      52 <-100        -0.00103
      52 <-105         0.00158
      52 <-115         0.00110
      52 <-122         0.00113
      53 <- 65        -0.00381
      53 <- 69        -0.00184
      53 <- 82        -0.00135
      53 <- 91        -0.00106
      54 <- 69        -0.00141
      54 <- 86         0.00154
      55 <- 87        -0.00153
      55 <- 90        -0.00382
      55 <- 94         0.00214
      55 <- 95        -0.00208
      55 <- 97         0.00286
      55 <-100         0.00101
      55 <-105        -0.00166
      56 <- 65         0.00401
      56 <- 69         0.00164
      58 <- 65        -0.01251
      58 <- 69        -0.00816
      58 <- 78         0.00166
      58 <- 82         0.00228
      58 <- 91        -0.00141
      58 <-101        -0.00113
      59 <- 66        -0.00106
      59 <- 80         0.00123
      59 <- 92         0.00110
      59 <- 94        -0.00149
      59 <- 97        -0.00108
      59 <-100         0.00146
      59 <-122         0.00101
      59 <-130         0.00100
      60 <- 65        -0.00774
      60 <- 67         0.00107
      60 <- 69        -0.00386
      60 <- 71        -0.00366
      60 <- 76        -0.00219
      60 <- 82         0.00300
      60 <- 85         0.00159
      60 <- 91        -0.00196
      60 <- 93        -0.00129
      60 <- 98         0.00183
      60 <- 99        -0.00151
      60 <-101         0.00138
      60 <-116         0.00219
      60 <-118         0.00149
      61 <- 66         0.00312
      61 <- 68        -0.00168
      61 <- 80        -0.00106
      61 <- 92         0.00113
      61 <- 94         0.00126
      61 <- 95        -0.00162
      61 <- 97         0.00184
      61 <-105        -0.00119
      61 <-122        -0.00105
      62 <- 65        -0.00897
      62 <- 67         0.00435
      62 <- 69        -0.00376
      62 <- 71        -0.00147
      62 <- 82         0.00105
      62 <- 91        -0.00150
      63 <- 66         0.00358
      63 <- 68         0.00295
      63 <- 70        -0.00196
      63 <- 83        -0.00129
      63 <- 84         0.00175
      63 <- 90         0.00242
      63 <- 92        -0.00184
      63 <- 94        -0.00165
      63 <- 95         0.00255
      63 <- 97        -0.00254
      63 <-100        -0.00166
      63 <-105         0.00171
      64 <- 65        -0.04807
      64 <- 69        -0.02612
      64 <- 71        -0.00236
      64 <- 76        -0.00162
      64 <- 78         0.00576
      64 <- 82         0.00257
      64 <- 91        -0.00396
      64 <- 99        -0.00259
      64 <-110         0.00140
      64 <-114         0.00178
      64 <-118         0.00124
      64 <-155        -0.00153
      64 <-162        -0.00113
      64 <-182         0.00116
      64 <-223         0.00129
      64 <-239        -0.00113
      64 <-240        -0.00117
      64 <-262        -0.00129
 This state for optimization and/or second-order correction.
 Total Energy, E(TD-HF/TD-DFT) =  -1490.93823509    
 Copying the excited state density for this state as the 1-particle RhoCI density.
 
 Excited state symmetry could not be determined.
 Excited State   2:      Singlet-?Sym    4.3288 eV  286.42 nm  f=0.3999  <S**2>=0.000
      25 -> 68        -0.00175
      25 -> 77        -0.00119
      25 -> 83         0.00272
      25 -> 88        -0.00113
      25 -> 92         0.00125
      25 -> 94        -0.00106
      25 -> 97        -0.00292
      25 ->105         0.00164
      25 ->122         0.00195
      25 ->128        -0.00117
      25 ->161         0.00137
      26 -> 82         0.00319
      26 -> 98         0.00120
      27 -> 70        -0.00115
      27 -> 83         0.00120
      27 -> 90        -0.00142
      27 -> 94         0.00154
      27 ->149        -0.00108
      28 -> 71        -0.00111
      28 -> 86         0.00107
      28 ->101         0.00175
      29 -> 80        -0.00153
      29 -> 95         0.00121
      29 ->147        -0.00126
      30 -> 65         0.00180
      30 -> 71         0.00121
      30 -> 81        -0.00121
      30 -> 82        -0.00316
      30 -> 85        -0.00109
      30 -> 86        -0.00106
[...]
   5         O               -10.371979         15.760692
   6         O               -10.371965         15.760826
   7         O               -10.349087         15.748317
   8         O               -10.349082         15.748977
   9         O               -10.322005         15.757013
  10         O               -10.321998         15.757061
  11         O               -10.321310         15.747816
  12         O               -10.321297         15.747874
  13         O               -10.319897         15.752717
  14         O               -10.319885         15.752796
  15         O               -10.317979         15.748987
  16         O               -10.317973         15.748984
  17         O                -9.587972         21.659834
  18         O                -9.587969         21.659946
  19         O                -7.342013         20.536370
  20         O                -7.342010         20.536382
  21         O                -7.332095         20.556452
  22         O                -7.332092         20.556463
  23         O                -7.331579         20.554973
  24         O                -7.331576         20.555258
  25         O                -1.152567          2.316292
  26         O                -1.005135          1.958362
  27         O                -0.991291          2.110606
  28         O                -0.945685          2.387477
  29         O                -0.940759          2.214002
  30         O                -0.908258          1.824713
  31         O                -0.857206          1.809970
  32         O                -0.838921          2.038919
  33         O                -0.832720          2.104555
  34         O                -0.779860          1.926197
  35         O                -0.716143          1.560210
  36         O                -0.714279          1.755041
  37         O                -0.710477          1.584655
  38         O                -0.668100          1.704804
  39         O                -0.630407          1.489353
  40         O                -0.601263          1.352786
  41         O                -0.587208          1.444550
  42         O                -0.585990          1.473564
  43         O                -0.560404          1.611475
  44         O                -0.554298          1.443853
  45         O                -0.539641          1.500038
  46         O                -0.536529          1.540270
  47         O                -0.524576          1.508887
  48         O                -0.523574          1.495439
  49         O                -0.498264          1.141252
  50         O                -0.492856          1.703734
  51         O                -0.474804          1.459110
  52         O                -0.466894          1.447481
  53         O                -0.464903          1.508866
  54         O                -0.452446          1.589748
  55         O                -0.442192          1.616794
  56         O                -0.425394          1.738594
  57         O                -0.423230          1.700902
  58         O                -0.403170          2.244575
  59         O                -0.391865          2.412585
  60         O                -0.367681          1.312820
  61         O                -0.338286          1.326379
  62         O                -0.332998          1.528279
  63         O                -0.318843          1.547197
  64         O                -0.306323          2.075922
  65         V                -0.018119          1.738324
  66         V                 0.043611          1.409451
  67         V                 0.044197          1.387971
  68         V                 0.054147          1.481780
  69         V                 0.087423          1.730553
  70         V                 0.108944          1.902256
  71         V                 0.118154          1.960651
  72         V                 0.158370          1.254129
  73         V                 0.162563          1.305113
  74         V                 0.181541          0.795642
  75         V                 0.186489          0.932727
  76         V                 0.212566          1.025308
  77         V                 0.218478          1.527311
  78         V                 0.221647          1.626216
  79         V                 0.222360          1.168895
  80         V                 0.225682          1.088540
  81         V                 0.228768          0.951239
  82         V                 0.289930          1.975304
  83         V                 0.301690          2.343166
  84         V                 0.340626          1.691823
  85         V                 0.348116          1.559141
  86         V                 0.348753          1.276105
  87         V                 0.353267          1.183149
  88         V                 0.360533          1.565721
  89         V                 0.360703          1.526838
  90         V                 0.370992          1.742369
  91         V                 0.393498          1.743972
  92         V                 0.406541          2.019058
  93         V                 0.430394          1.786253
  94         V                 0.453703          1.777583
  95         V                 0.464622          1.660095
  96         V                 0.466121          1.548884
  97         V                 0.480455          1.950212
  98         V                 0.481435          1.654461
  99         V                 0.505613          1.768532
 100         V                 0.510909          1.825837
 101         V                 0.521081          2.074519
 102         V                 0.536250          1.858507
 103         V                 0.538123          1.886621
 104         V                 0.540434          1.882918
 105         V                 0.546523          1.941296
 106         V                 0.547240          1.818303
 107         V                 0.566289          1.841569
 108         V                 0.566858          1.598146
 109         V                 0.597271          1.998593
 110         V                 0.600051          1.936448
 111         V                 0.606345          1.964335
 112         V                 0.608668          2.033460
 113         V                 0.611668          2.033583
 114         V                 0.618078          1.934981
 115         V                 0.635311          2.369179
 116         V                 0.641053          2.496761
 117         V                 0.668796          2.362404
 118         V                 0.671346          2.430941
 119         V                 0.676440          2.557421
 120         V                 0.681682          2.276177
 121         V                 0.688125          2.330939
 122         V                 0.696836          2.613318
 123         V                 0.711427          2.717790
 124         V                 0.720058          2.422039
 125         V                 0.734172          2.523625
 126         V                 0.739179          2.496488
 127         V                 0.746269          2.911933
 128         V                 0.749457          2.394833
 129         V                 0.754479          2.260782
 130         V                 0.755381          2.818312
 131         V                 0.777234          2.708535
 132         V                 0.787464          2.831322
 133         V                 0.788617          2.532178
 134         V                 0.795499          2.515913
 135         V                 0.797022          2.732301
 136         V                 0.803311          2.832373
 137         V                 0.814047          2.812612
 138         V                 0.824329          2.830888
 139         V                 0.830413          2.720081
 140         V                 0.842886          2.615273
 141         V                 0.864922          2.299915
 142         V                 0.865362          2.371340
 143         V                 0.873630          2.702882
 144         V                 0.874747          2.545879
 145         V                 0.886503          3.203327
 146         V                 0.889422          3.474807
 147         V                 0.897075          3.621451
 148         V                 0.904706          3.248461
 149         V                 0.918161          3.063865
 150         V                 0.922924          3.109285
 151         V                 0.934755          2.736986
 152         V                 0.945981          3.136551
 153         V                 0.972935          2.695115
 154         V                 0.980497          2.721290
 155         V                 0.994766          3.329913
 156         V                 1.025224          2.565460
 157         V                 1.035260          2.378163
 158         V                 1.057874          3.129402
 159         V                 1.067888          3.137502
 160         V                 1.085166          2.731368
 161         V                 1.094157          2.889976
 162         V                 1.136097          2.790004
 163         V                 1.155465          2.639053
 164         V                 1.163055          2.797096
 165         V                 1.191423          2.913176
 166         V                 1.227759          3.293705
 167         V                 1.240619          3.447013
 168         V                 1.259982          2.190578
 169         V                 1.271737          2.202430
 170         V                 1.278338          3.040244
 171         V                 1.315336          2.432868
 172         V                 1.318922          2.471106
 173         V                 1.333041          2.217429
 174         V                 1.333254          2.470811
 175         V                 1.338623          3.044129
 176         V                 1.340688          2.432524
 177         V                 1.358471          2.897613
 178         V                 1.360857          2.514975
 179         V                 1.375346          2.536083
 180         V                 1.378296          2.549913
 181         V                 1.394023          2.753018
 182         V                 1.441189          2.698945
 183         V                 1.468821          3.029698
 184         V                 1.497330          3.356980
 185         V                 1.549137          2.765443
 186         V                 1.573662          2.565112
 187         V                 1.584368          2.752723
 188         V                 1.591771          2.666104
 189         V                 1.622413          2.845480
 190         V                 1.681055          2.866157
 191         V                 1.735189          2.778576
 192         V                 1.740140          2.767752
 193         V                 1.772478          2.824934
 194         V                 1.774455          2.899143
 195         V                 1.781811          2.648912
 196         V                 1.783261          2.601393
 197         V                 1.791059          3.040381
 198         V                 1.803090          3.014632
 199         V                 1.833668          2.937315
 200         V                 1.839148          2.991076
 201         V                 1.839188          3.036840
 202         V                 1.842580          2.825681
 203         V                 1.851692          2.827124
 204         V                 1.856615          2.871135
 205         V                 1.858410          2.920213
 206         V                 1.897684          3.092940
 207         V                 1.910744          3.129302
 208         V                 1.910908          2.939690
 209         V                 1.945533          3.099345
 210         V                 1.974585          3.042960
 211         V                 1.979675          2.995259
 212         V                 1.999289          3.158189
 213         V                 2.019888          3.064757
 214         V                 2.021695          2.890050
 215         V                 2.023054          3.045647
 216         V                 2.040555          3.254101
 217         V                 2.055709          3.346890
 218         V                 2.074740          3.225662
 219         V                 2.092628          3.403318
 220         V                 2.135050          3.296049
 221         V                 2.143494          3.337920
 222         V                 2.165140          3.414687
 223         V                 2.181125          3.360840
 224         V                 2.213734          3.499003
 225         V                 2.217783          3.437970
 226         V                 2.218667          3.496132
 227         V                 2.235746          3.502254
 228         V                 2.270538          3.594261
 229         V                 2.310293          3.734632
 230         V                 2.310518          3.760443
 231         V                 2.319872          3.729916
 232         V                 2.334104          3.641324
 233         V                 2.352965          3.541538
 234         V                 2.353255          3.544269
 235         V                 2.361693          3.567953
 236         V                 2.387144          3.914363
 237         V                 2.393186          3.509312
 238         V                 2.395562          3.505949
 239         V                 2.438200          3.901254
 240         V                 2.461561          4.056174
 241         V                 2.492705          4.174008
 242         V                 2.543289          3.750270
 243         V                 2.566642          3.903721
 244         V                 2.594012          4.163484
 245         V                 2.649383          4.342351
 246         V                 2.666617          4.207758
 247         V                 2.680766          4.492748
 248         V                 2.700224          4.436078
 249         V                 2.707140          3.954215
 250         V                 2.709078          4.258881
 251         V                 2.713601          4.363278
 252         V                 2.749197          4.291406
 253         V                 2.797277          4.598643
 254         V                 2.797935          4.597313
 255         V                 2.855178          4.712300
 256         V                 2.864981          4.681308
 257         V                 2.891426          4.678923
 258         V                 2.898067          4.691213
 259         V                 2.935234          4.783926
 260         V                 2.975487          4.728920
 261         V                 2.981866          4.920659
 262         V                 2.993004          4.571409
 263         V                 3.092306          4.804250
 264         V                 3.129615          4.890013
 265         V                 3.151336          4.936815
 266         V                 3.161300          4.876204
 267         V                 3.244853          4.988279
 268         V                 3.248004          5.069668
 269         V                 3.468973          5.222864
 270         V                 3.494731          5.606350
 271         V                 3.675096          5.381019
 272         V                 3.695683          5.454991
 Total kinetic energy from orbitals= 1.483286593400D+03
 Leave Link  601 at Fri Mar  6 17:34:14 2026, MaxMem=  1610612736 cpu:               0.2 elap:               0.2
 (Enter /prod/precompiled/gaussian/16c2/g16/l9999.exe)
 Electronic transition elements 
                 1             2             3             4             5 
      1  -0.149094D+04 -0.149088D+04 -0.149086D+04 -0.149086D+04 -0.149083D+04
      2   0.362887D-03  0.846199D+00 -0.118729D-02 -0.865962D+00  0.283736D-03
      3  -0.449197D-03 -0.172222D+01  0.439648D-03  0.684943D+00 -0.335828D-03
      4   0.635892D-04  0.298573D+00 -0.104638D-03  0.555754D-01 -0.433492D-03
      5  -0.369085D-04 -0.126024D+00  0.201349D-03  0.150909D+00 -0.609544D-04
      6   0.420697D-04  0.271901D+00 -0.710335D-04 -0.110037D+00  0.642049D-04
      7  -0.121053D-04 -0.516868D-01  0.274144D-04 -0.737242D-02  0.971228D-04
      8   0.903944D+00 -0.626942D-01  0.351360D+00 -0.405129D-01  0.517283D+00
      9  -0.605755D+00 -0.970931D-01  0.234212D+00 -0.497845D-01  0.237852D+00
     10   0.167327D+00 -0.356366D+00  0.101522D+01 -0.876860D-01  0.116312D+01
     11   0.415415D-01  0.602813D+00  0.354509D+00 -0.721312D+00  0.366681D+00
     12   0.716313D-01  0.126145D+01 -0.503391D+00 -0.510108D+00 -0.737851D+00
     13   0.568271D-01  0.219944D-01 -0.405093D-01  0.309347D-02 -0.660971D-01
     14  -0.789687D-01 -0.942657D+00 -0.137804D+00  0.613025D+00 -0.206810D+00
     15   0.491395D-01  0.150218D+00 -0.377936D-01 -0.141836D-01 -0.192893D-01
     16   0.536813D-01 -0.177710D+00  0.198090D+00  0.614132D-02  0.261468D+00
                 6             7             8             9            10 
      1  -0.149083D+04 -0.149083D+04 -0.149082D+04 -0.149081D+04 -0.149081D+04
      2  -0.631315D+00  0.178109D-02 -0.614861D+00 -0.231630D-02  0.105350D+01
      3  -0.225077D+00 -0.224218D-03  0.261445D+00  0.205434D-02 -0.600323D+00
      4   0.248362D+00 -0.105211D-02  0.217218D+00 -0.121324D-03 -0.198198D+00
      5   0.126737D+00 -0.404052D-03  0.140821D+00  0.486720D-03 -0.232423D+00
      6   0.470788D-01  0.340760D-04 -0.505837D-01 -0.435824D-03  0.129262D+00
      7  -0.398435D-01  0.234216D-03 -0.469053D-01  0.173425D-04  0.476090D-01
      8  -0.831642D-01  0.463498D+00 -0.118046D+00  0.826753D+00  0.138822D+00
      9  -0.122880D+00  0.326785D+00 -0.140946D+00 -0.107650D+00  0.161793D+00
     10  -0.408010D+00  0.725899D+00 -0.202804D+00  0.788707D+00  0.228983D+00
     11  -0.606566D+00  0.988754D+00 -0.670243D+00  0.444301D+00  0.110878D+01
     12   0.219422D+00  0.884997D-01 -0.235194D+00 -0.793872D-01  0.599911D+00
     13   0.170565D-01 -0.326734D-01  0.196747D-01 -0.340443D-02 -0.200401D-01
     14   0.181704D+00 -0.682618D+00  0.445652D+00 -0.355100D+00 -0.846688D+00
     15   0.687170D-01 -0.118604D+00  0.821003D-01  0.305811D-01 -0.642437D-01
     16  -0.103092D+00  0.221507D+00 -0.973684D-01  0.238795D+00  0.826633D-01

 Test job not archived.
 1\1\GINC-AMD48\SP\RwB97XD TD-FC\def2SVP\C12H8Cl2N2\SVELA\06-Mar-2026\0
 \\#p nosymm scf=(maxconventionalcycles=200,xqc) wB97XD def2SVP td=(sin
 glets,nstates=10) pop=full iop(9/40=3) GFINPUT Integral=NoXCTest\\Titl
 e Card\\0,1\C,0,-0.031101,-0.036525,0.03185\C,0,-0.577926,-1.250982,0.
 48353\Cl,0,-2.162683,-1.357237,1.192851\C,0,0.186399,-2.417369,0.43253
 6\C,0,1.481719,-2.391,-0.076293\C,0,2.037764,-1.188863,-0.511987\C,0,1
 .288881,-0.021682,-0.43437\N,0,-0.669007,1.228632,0.055147\N,0,-1.8603
 67,1.227568,-0.278621\C,0,-2.49847,2.492601,-0.255467\C,0,-1.952277,3.
 706806,-0.708562\Cl,0,-0.36793,3.812741,-1.418789\C,0,-2.716934,4.8730
 03,-0.658228\C,0,-4.011902,4.846703,-0.148488\C,0,-4.567258,3.644816,0
 .288859\C,0,-3.8181,2.477788,0.211776\H,0,-0.250194,-3.34728,0.799465\
 H,0,2.061558,-3.315113,-0.116908\H,0,3.057876,-1.158883,-0.898642\H,0,
 1.697375,0.941305,-0.745862\H,0,-2.280891,5.802699,-1.026393\H,0,-4.59
 2048,5.770638,-0.108442\H,0,-5.587094,3.614874,0.676287\H,0,-4.226131,
 1.514958,0.524398\\Version=ES64L-G16RevC.02\HF=-1491.0341414\RMSD=5.43
 4e-09\PG=C01 [X(C12H8Cl2N2)]\\@


 Change starts when someone sees the next step.
                            -- William Drayton
 Job cpu time:       0 days  0 hours 17 minutes 25.3 seconds.
 Elapsed time:       0 days  0 hours  2 minutes 21.2 seconds.
 File lengths (MBytes):  RWF=    600 Int=      0 D2E=      0 Chk=     31 Scr=      1
 Normal termination of Gaussian 16 at Fri Mar  6 17:34:14 2026.
