 Entering Gaussian System, Link 0=g16
 Initial command:
 /prod/precompiled/gaussian/16c2/g16/l1.exe "/scratch/ucsscms/svela/2076941/Gau-1267090.inp" -scrdir="/scratch/ucsscms/svela/2076941/"
 Entering Link 1 = /prod/precompiled/gaussian/16c2/g16/l1.exe PID=   1267092.
  
 Copyright (c) 1988-2021, Gaussian, Inc.  All Rights Reserved.
  
 This is part of the Gaussian(R) 16 program.  It is based on
 the Gaussian(R) 09 system (copyright 2009, Gaussian, Inc.),
 the Gaussian(R) 03 system (copyright 2003, Gaussian, Inc.),
 the Gaussian(R) 98 system (copyright 1998, Gaussian, Inc.),
 the Gaussian(R) 94 system (copyright 1995, Gaussian, Inc.),
 the Gaussian 92(TM) system (copyright 1992, Gaussian, Inc.),
 the Gaussian 90(TM) system (copyright 1990, Gaussian, Inc.),
 the Gaussian 88(TM) system (copyright 1988, Gaussian, Inc.),
 the Gaussian 86(TM) system (copyright 1986, Carnegie Mellon
 University), and the Gaussian 82(TM) system (copyright 1983,
 Carnegie Mellon University). Gaussian is a federally registered
 trademark of Gaussian, Inc.
  
 This software contains proprietary and confidential information,
 including trade secrets, belonging to Gaussian, Inc.
  
 This software is provided under written license and may be
 used, copied, transmitted, or stored only in accord with that
 written license.
  
 The following legend is applicable only to US Government
 contracts under FAR:
  
                    RESTRICTED RIGHTS LEGEND
  
 Use, reproduction and disclosure by the US Government is
 subject to restrictions as set forth in subparagraphs (a)
 and (c) of the Commercial Computer Software - Restricted
 Rights clause in FAR 52.227-19.
  
 Gaussian, Inc.
 340 Quinnipiac St., Bldg. 40, Wallingford CT 06492
  
  
 ---------------------------------------------------------------
 Warning -- This program may not be used in any manner that
 competes with the business of Gaussian, Inc. or will provide
 assistance to any competitor of Gaussian, Inc.  The licensee
 of this program is prohibited from giving any competitor of
 Gaussian, Inc. access to this program.  By using this program,
 the user acknowledges that Gaussian, Inc. is engaged in the
 business of creating and licensing software in the field of
 computational chemistry and represents and warrants to the
 licensee that it is not a competitor of Gaussian, Inc. and that
 it will not use this program in any manner prohibited above.
 ---------------------------------------------------------------
  

 Cite this work as:
 Gaussian 16, Revision C.02,
 M. J. Frisch, G. W. Trucks, H. B. Schlegel, G. E. Scuseria, 
 M. A. Robb, J. R. Cheeseman, G. Scalmani, V. Barone, 
 G. A. Petersson, H. Nakatsuji, X. Li, M. Caricato, A. V. Marenich, 
 J. Bloino, B. G. Janesko, R. Gomperts, B. Mennucci, H. P. Hratchian, 
 J. V. Ortiz, A. F. Izmaylov, J. L. Sonnenberg, D. Williams-Young, 
 F. Ding, F. Lipparini, F. Egidi, J. Goings, B. Peng, A. Petrone, 
 T. Henderson, D. Ranasinghe, V. G. Zakrzewski, J. Gao, N. Rega, 
 G. Zheng, W. Liang, M. Hada, M. Ehara, K. Toyota, R. Fukuda, 
 J. Hasegawa, M. Ishida, T. Nakajima, Y. Honda, O. Kitao, H. Nakai, 
 T. Vreven, K. Throssell, J. A. Montgomery, Jr., J. E. Peralta, 
 F. Ogliaro, M. J. Bearpark, J. J. Heyd, E. N. Brothers, K. N. Kudin, 
 V. N. Staroverov, T. A. Keith, R. Kobayashi, J. Normand, 
 K. Raghavachari, A. P. Rendell, J. C. Burant, S. S. Iyengar, 
 J. Tomasi, M. Cossi, J. M. Millam, M. Klene, C. Adamo, R. Cammi, 
 J. W. Ochterski, R. L. Martin, K. Morokuma, O. Farkas, 
 J. B. Foresman, and D. J. Fox, Gaussian, Inc., Wallingford CT, 2019.
 
 ******************************************
 Gaussian 16:  ES64L-G16RevC.02  7-Dec-2021
                 6-Mar-2026 
 ******************************************
 %nprocs=12
 Will use up to   12 processors via shared memory.
 %mem=18gb
 %chk=test_cis_freq_r1.chk
 ----------------------------------------------------------------------
 #p nosymm scf=(maxconventionalcycles=200,xqc) wB97XD def2SVP freq(hpmo
 des)
 ----------------------------------------------------------------------
 1/10=4,30=1,38=1/1,3;
 2/12=2,15=1,17=6,18=5,40=1/2;
 3/5=43,7=101,11=2,25=1,30=1,71=2,74=-58,140=1/1,2,3;
 4//1;
 5/5=2,8=3,13=1,38=5,85=200,98=1/2,8;
 8/6=4,10=90,11=11/1;
 11/6=1,8=1,9=11,15=111,16=1,31=1/1,2,10;
 10/6=1,31=1/2;
 6/7=2,8=2,9=2,10=2,28=1/1;
 7/8=11,10=1,25=1,30=1/1,2,3,16;
 1/10=4,30=1/3;
 99//99;
 Leave Link    1 at Fri Mar  6 17:31:42 2026, MaxMem=  2415919104 cpu:               0.1 elap:               0.4
 (Enter /prod/precompiled/gaussian/16c2/g16/l101.exe)
 ----------
 Title Card
 ----------
 Symbolic Z-matrix:
 Charge =  0 Multiplicity = 1
 C                    -0.01827  -0.07629   0.55464 
 C                    -0.05308   0.06969   1.94372 
 Cl                   -0.67069  -1.23307   2.91777 
 C                     0.44702   1.21988   2.54791 
 C                     0.97055   2.24083   1.75756 
 C                     1.00292   2.10565   0.37001 
 C                     0.5131    0.95044  -0.23082 
 N                    -0.64582  -1.20092  -0.06526 
 N                     0.00899  -2.01369  -0.72258 
 C                     1.43749  -1.96907  -0.73991 
 C                     2.11863  -1.7445   -1.93892 
 Cl                    1.21318  -1.30406  -3.35813 
 C                     3.5078   -1.82     -1.98948 
 C                     4.22227  -2.13955  -0.83683 
 C                     3.54941  -2.37166   0.36236 
 C                     2.1619   -2.28441   0.41302 
 H                     0.42385   1.30392   3.63527 
 H                     1.35542   3.14534   2.23196 
 H                     1.4135    2.90382  -0.25098 
 H                     0.52813   0.83001  -1.31633 
 H                     4.01834  -1.62457  -2.93348 
 H                     5.31089  -2.20586  -0.87933 
 H                     4.1073   -2.62131   1.26665 
 H                     1.61939  -2.46658   1.34338 
 
 ITRead=  0  0  0  0  0  0  0  0  0  0  0  0  0  0  0  0  0  0  0  0
 ITRead=  0  0  0  0
 MicOpt= -1 -1 -1 -1 -1 -1 -1 -1 -1 -1 -1 -1 -1 -1 -1 -1 -1 -1 -1 -1
 MicOpt= -1 -1 -1 -1
 NAtoms=     24 NQM=       24 NQMF=       0 NMMI=      0 NMMIF=      0
                NMic=       0 NMicF=      0.
                    Isotopes and Nuclear Properties:
 (Nuclear quadrupole moments (NQMom) in fm**2, nuclear magnetic moments (NMagM)
  in nuclear magnetons)

  Atom         1           2           3           4           5           6           7           8           9          10
 IAtWgt=          12          12          35          12          12          12          12          14          14          12
 AtmWgt=  12.0000000  12.0000000  34.9688527  12.0000000  12.0000000  12.0000000  12.0000000  14.0030740  14.0030740  12.0000000
 NucSpn=           0           0           3           0           0           0           0           2           2           0
 AtZEff=  -0.0000000  -0.0000000  -0.0000000  -0.0000000  -0.0000000  -0.0000000  -0.0000000  -0.0000000  -0.0000000  -0.0000000
 NQMom=    0.0000000   0.0000000  -8.1650000   0.0000000   0.0000000   0.0000000   0.0000000   2.0440000   2.0440000   0.0000000
 NMagM=    0.0000000   0.0000000   0.8218740   0.0000000   0.0000000   0.0000000   0.0000000   0.4037610   0.4037610   0.0000000
 AtZNuc=   6.0000000   6.0000000  17.0000000   6.0000000   6.0000000   6.0000000   6.0000000   7.0000000   7.0000000   6.0000000

  Atom        11          12          13          14          15          16          17          18          19          20
 IAtWgt=          12          35          12          12          12          12           1           1           1           1
 AtmWgt=  12.0000000  34.9688527  12.0000000  12.0000000  12.0000000  12.0000000   1.0078250   1.0078250   1.0078250   1.0078250
 NucSpn=           0           3           0           0           0           0           1           1           1           1
 AtZEff=  -0.0000000  -0.0000000  -0.0000000  -0.0000000  -0.0000000  -0.0000000  -0.0000000  -0.0000000  -0.0000000  -0.0000000
 NQMom=    0.0000000  -8.1650000   0.0000000   0.0000000   0.0000000   0.0000000   0.0000000   0.0000000   0.0000000   0.0000000
 NMagM=    0.0000000   0.8218740   0.0000000   0.0000000   0.0000000   0.0000000   2.7928460   2.7928460   2.7928460   2.7928460
 AtZNuc=   6.0000000  17.0000000   6.0000000   6.0000000   6.0000000   6.0000000   1.0000000   1.0000000   1.0000000   1.0000000

  Atom        21          22          23          24
 IAtWgt=           1           1           1           1
 AtmWgt=   1.0078250   1.0078250   1.0078250   1.0078250
 NucSpn=           1           1           1           1
 AtZEff=  -0.0000000  -0.0000000  -0.0000000  -0.0000000
 NQMom=    0.0000000   0.0000000   0.0000000   0.0000000
 NMagM=    2.7928460   2.7928460   2.7928460   2.7928460
 AtZNuc=   1.0000000   1.0000000   1.0000000   1.0000000
 Leave Link  101 at Fri Mar  6 17:31:42 2026, MaxMem=  2415919104 cpu:               0.1 elap:               0.1
 (Enter /prod/precompiled/gaussian/16c2/g16/l103.exe)

 GradGradGradGradGradGradGradGradGradGradGradGradGradGradGradGradGradGrad
 Berny optimization.
 Initialization pass.
 Trust Radius=3.00D-01 FncErr=1.00D-07 GrdErr=1.00D-07 EigMax=2.50D+02 EigMin=1.00D-04
 Number of steps in this run=      2 maximum allowed number of steps=      2.
 GradGradGradGradGradGradGradGradGradGradGradGradGradGradGradGradGradGrad

 Leave Link  103 at Fri Mar  6 17:31:42 2026, MaxMem=  2415919104 cpu:               0.1 elap:               0.1
 (Enter /prod/precompiled/gaussian/16c2/g16/l202.exe)
                          Input orientation:                          
 ---------------------------------------------------------------------
 Center     Atomic      Atomic             Coordinates (Angstroms)
 Number     Number       Type             X           Y           Z
 ---------------------------------------------------------------------
      1          6           0       -0.018265   -0.076286    0.554644
      2          6           0       -0.053084    0.069688    1.943717
      3         17           0       -0.670690   -1.233069    2.917769
      4          6           0        0.447016    1.219884    2.547909
      5          6           0        0.970545    2.240828    1.757560
      6          6           0        1.002915    2.105650    0.370007
      7          6           0        0.513099    0.950442   -0.230821
      8          7           0       -0.645815   -1.200923   -0.065258
      9          7           0        0.008986   -2.013691   -0.722576
     10          6           0        1.437487   -1.969067   -0.739905
     11          6           0        2.118625   -1.744501   -1.938918
     12         17           0        1.213175   -1.304060   -3.358134
     13          6           0        3.507795   -1.820002   -1.989481
     14          6           0        4.222269   -2.139548   -0.836832
     15          6           0        3.549410   -2.371657    0.362361
     16          6           0        2.161897   -2.284412    0.413015
     17          1           0        0.423850    1.303924    3.635274
     18          1           0        1.355424    3.145336    2.231960
     19          1           0        1.413501    2.903822   -0.250978
     20          1           0        0.528126    0.830014   -1.316327
     21          1           0        4.018336   -1.624566   -2.933484
     22          1           0        5.310891   -2.205864   -0.879326
     23          1           0        4.107302   -2.621312    1.266646
     24          1           0        1.619392   -2.466578    1.343382
 ---------------------------------------------------------------------
                    Distance matrix (angstroms):
                    1          2          3          4          5
     1  C    0.000000
     2  C    1.397156   0.000000
     3  Cl   2.710750   1.739940   0.000000
     4  C    2.422736   1.392156   2.720853   0.000000
     5  C    2.791732   2.407555   4.013440   1.393220   0.000000
     6  C    2.416142   2.781517   4.520961   2.415960   1.394498
     7  C    1.397667   2.413484   4.010324   2.792545   2.414128
     8  N    1.429303   2.449850   2.983304   3.726020   4.216745
     9  N    2.320683   3.384293   3.784632   4.619951   5.017629
    10  C    2.716191   3.685126   4.285403   4.686167   4.917172
    11  C    3.683353   4.804420   5.623989   5.631472   5.555617
    12  Cl   4.281788   5.621407   6.552934   6.468279   6.228597
    13  C    4.684679   5.632125   6.471888   6.260765   6.080156
    14  C    4.916847   5.557951   6.233761   6.082334   6.040883
    15  C    4.246646   4.630207   5.063175   5.225001   5.465541
    16  C    3.106282   3.576447   3.924623   4.447323   4.868770
    17  H    3.404516   2.147596   2.854674   1.090854   2.168519
    18  H    3.883202   3.395083   4.872977   2.152300   1.091477
    19  H    3.402943   3.872967   5.612368   3.406392   2.161017
    20  H    2.149524   3.397615   4.860148   3.884700   3.410999
    21  H    5.555030   6.575260   7.508488   7.133785   6.799720
    22  H    5.915342   6.474561   7.151473   6.865782   6.750173
    23  H    4.899429   5.000872   5.242388   5.458399   5.806948
    24  H    3.002919   3.096809   3.040512   4.051586   4.769928
                    6          7          8          9         10
     6  C    0.000000
     7  C    1.391194   0.000000
     8  N    3.720375   2.449258   0.000000
     9  N    4.376140   3.046644   1.233460   0.000000
    10  C    4.245477   3.104383   2.320634   1.429303   0.000000
    11  C    4.625971   3.571838   3.383520   2.450006   1.397144
    12  Cl   5.056616   3.918287   3.782792   2.983255   2.710659
    13  C    5.220378   4.442572   4.619347   3.726155   2.422774
    14  C    5.462820   4.865514   5.017428   4.216711   2.791679
    15  C    5.150823   4.539536   4.376458   3.720192   2.416048
    16  C    4.540675   3.687457   3.047284   2.449057   1.397654
    17  H    3.411752   3.883247   4.594821   5.492680   5.557168
    18  H    2.161499   3.404756   5.307743   6.095715   5.915728
    19  H    1.091459   2.151005   4.596108   5.135854   4.897415
    20  H    2.167117   1.092269   2.658574   2.951051   2.999009
    21  H    5.824116   5.120717   5.491857   4.595043   3.404593
    22  H    6.221627   5.779415   6.095487   5.307702   3.883139
    23  H    5.725849   5.283761   5.136496   4.595911   3.402879
    24  H    4.715164   3.921482   2.952509   2.658326   2.149579
                   11         12         13         14         15
    11  C    0.000000
    12  Cl   1.740116   0.000000
    13  C    1.392139   2.721156   0.000000
    14  C    2.407483   4.013683   1.393263   0.000000
    15  C    2.781430   4.521044   2.416033   1.394517   0.000000
    16  C    2.413496   4.010328   2.792688   2.414174   1.391176
    17  H    6.575468   7.505489   7.134949   6.803324   5.830178
    18  H    6.472187   7.146084   6.863516   6.750280   6.224644
    19  H    4.995323   5.234579   5.451878   5.802412   5.724419
    20  H    3.089569   3.031920   4.044026   4.763917   4.711353
    21  H    2.147661   2.855167   1.090866   2.168581   3.411837
    22  H    3.395019   4.873296   2.152322   1.091468   2.161502
    23  H    3.872890   5.612461   3.406445   2.161003   1.091468
    24  H    3.397664   4.860115   3.884855   3.411048   2.167114
                   16         17         18         19         20
    16  C    0.000000
    17  H    5.126394   0.000000
    18  H    5.782830   2.495580   0.000000
    19  H    5.283820   4.317643   2.495332   0.000000
    20  H    3.919117   4.975321   4.316883   2.493900   0.000000
    21  H    3.883403   8.040209   7.518303   5.872589   4.563083
    22  H    3.404773   7.522193   7.345826   6.457040   5.681757
    23  H    2.150997   5.880960   6.462112   6.331418   5.603026
    24  H    1.092282   4.571518   5.687955   5.605852   4.374064
                   21         22         23         24
    21  H    0.000000
    22  H    2.495630   0.000000
    23  H    4.317697   2.495279   0.000000
    24  H    4.975490   4.316893   2.493898   0.000000
 Symmetry turned off by external request.
 Stoichiometry    C12H8Cl2N2
 Framework group  C1[X(C12H8Cl2N2)]
 Deg. of freedom    66
 Full point group                 C1      NOp   1
 Rotational constants (GHZ):           0.6788656           0.3081521           0.2923417
 Leave Link  202 at Fri Mar  6 17:31:42 2026, MaxMem=  2415919104 cpu:               0.1 elap:               0.0
 (Enter /prod/precompiled/gaussian/16c2/g16/l301.exe)
 Standard basis: def2SVP (5D, 7F)
 Ernie: Thresh=  0.10000D-02 Tol=  0.10000D-05 Strict=F.
   272 basis functions,   480 primitive gaussians,   288 cartesian basis functions
    64 alpha electrons       64 beta electrons
       nuclear repulsion energy      1240.9157905442 Hartrees.
 IExCor= 4639 DFT=T Ex+Corr=wB97XD ExCW=0 ScaHFX=  1.000000
 ScaDFX=  1.000000  1.000000  1.000000  1.000000 ScalE2=  1.000000  1.000000
 IRadAn=      5 IRanWt=     -1 IRanGd=            0 ICorTp=0 IEmpDi=121
 HFx  wShort=  0.000000 wLong=  0.200000 cFull=  0.222036 cShort=  0.000000 cLong=  0.777964
 DFx  wShort=  0.000000 wLong=  0.200000 cFull=  0.000000 cShort=  0.000000 cLong=  1.000000
 NAtoms=   24 NActive=   24 NUniq=   24 SFac= 1.00D+00 NAtFMM=   60 NAOKFM=F Big=F
 Integral buffers will be    131072 words long.
 Raffenetti 2 integral format.
 Two-electron integral symmetry is turned off.
 R6Disp:  Grimme-D2 Dispersion energy=       -0.0171247649 Hartrees.
 Nuclear repulsion after empirical dispersion term =     1240.8986657792 Hartrees.
 Leave Link  301 at Fri Mar  6 17:31:42 2026, MaxMem=  2415919104 cpu:               0.1 elap:               0.1
 (Enter /prod/precompiled/gaussian/16c2/g16/l302.exe)
 NPDir=0 NMtPBC=     1 NCelOv=     1 NCel=       1 NClECP=     1 NCelD=      1
         NCelK=      1 NCelE2=     1 NClLst=     1 CellRange=     0.0.
 One-electron integrals computed using PRISM.
   1 Symmetry operations used in ECPInt.
 ECPInt:  NShTT=    7750 NPrTT=   30142 LenC2=    7388 LenP2D=   20350.
 LDataN:  DoStor=T MaxTD1= 4 Len=   56
 NBasis=   272 RedAO= T EigKep=  2.21D-04  NBF=   272
 NBsUse=   272 1.00D-06 EigRej= -1.00D+00 NBFU=   272
 Precomputing XC quadrature grid using
 IXCGrd= 4 IRadAn=           5 IRanWt=          -1 IRanGd=           0 AccXCQ= 0.00D+00.
 Generated NRdTot=       0 NPtTot=           0 NUsed=           0 NTot=          32
 NSgBfM=   286   286   286   286   286 MxSgAt=    24 MxSgA2=    24.
 Leave Link  302 at Fri Mar  6 17:31:42 2026, MaxMem=  2415919104 cpu:               1.2 elap:               0.2
 (Enter /prod/precompiled/gaussian/16c2/g16/l303.exe)
 DipDrv:  MaxL=1.
 Leave Link  303 at Fri Mar  6 17:31:42 2026, MaxMem=  2415919104 cpu:               0.2 elap:               0.1
 (Enter /prod/precompiled/gaussian/16c2/g16/l401.exe)
 ExpMin= 1.22D-01 ExpMax= 1.04D+04 ExpMxC= 1.57D+03 IAcc=3 IRadAn=         5 AccDes= 0.00D+00
 Harris functional with IExCor= 4639 and IRadAn=       5 diagonalized for initial guess.
 HarFok:  IExCor= 4639 AccDes= 0.00D+00 IRadAn=         5 IDoV= 1 UseB2=F ITyADJ=14
 ICtDFT=  3500011 ScaDFX=  1.000000  1.000000  1.000000  1.000000
 FoFCou: FMM=F IPFlag=           0 FMFlag=      100000 FMFlg1=           0
         NFxFlg=           0 DoJE=T BraDBF=F KetDBF=T FulRan=T
         wScrn=  0.000000 ICntrl=       500 IOpCl=  0 I1Cent=   200000004 NGrid=           0
         NMat0=    1 NMatS0=      1 NMatT0=    0 NMatD0=    1 NMtDS0=    0 NMtDT0=    0
 Symmetry not used in FoFCou.
 Harris En= -1450.80622493309    
 JPrj=0 DoOrth=F DoCkMO=F.
 Leave Link  401 at Fri Mar  6 17:31:43 2026, MaxMem=  2415919104 cpu:               5.6 elap:               0.6
 (Enter /prod/precompiled/gaussian/16c2/g16/l502.exe)
 Two-electron integral symmetry not used.
 Closed shell SCF:
 Using DIIS extrapolation, IDIIS=  1040.
 NGot=  2415919104 LenX=  2415746906 LenY=  2415663521
 Requested convergence on RMS density matrix=1.00D-08 within 200 cycles.
 Requested convergence on MAX density matrix=1.00D-06.
 Requested convergence on             energy=1.00D-06.
 No special actions if energy rises.
 Fock matrices will be formed incrementally for  20 cycles.
 Integral accuracy reduced to 1.0D-05 until final iterations.

 Cycle   1  Pass 0  IDiag  1:
 FoFJK:  IHMeth= 1 ICntrl=       0 DoSepK=T KAlg= 0 I1Cent=           0 FoldK=F
 IRaf=         1 NMat=       1 IRICut=       1 DoRegI=T DoRafI=F ISym2E= 0 IDoP0=0 IntGTp=1.
 FoFCou: FMM=F IPFlag=           0 FMFlag=      100000 FMFlg1=           0
         NFxFlg=           0 DoJE=T BraDBF=F KetDBF=F FulRan=T
         wScrn=  0.000000 ICntrl=       500 IOpCl=  0 I1Cent=           0 NGrid=           0
         NMat0=    1 NMatS0=      1 NMatT0=    0 NMatD0=    1 NMtDS0=    0 NMtDT0=    0
 Symmetry not used in FoFCou.
 E= -1490.59637496027    
 DIIS: error= 5.58D-02 at cycle   1 NSaved=   1.
 NSaved= 1 IEnMin= 1 EnMin= -1490.59637496027     IErMin= 1 ErrMin= 5.58D-02
 ErrMax= 5.58D-02  0.00D+00 EMaxC= 1.00D-01 BMatC= 7.31D-01 BMatP= 7.31D-01
 IDIUse=3 WtCom= 4.42D-01 WtEn= 5.58D-01
 Coeff-Com:  0.100D+01
 Coeff-En:   0.100D+01
 Coeff:      0.100D+01
 Gap=     0.399 Goal=   None    Shift=    0.000
 GapD=    0.399 DampG=1.000 DampE=0.500 DampFc=0.5000 IDamp=-1.
 Damping current iteration by 5.00D-01
 RMSDP=6.41D-03 MaxDP=2.74D-01              OVMax= 2.18D-01

 Cycle   2  Pass 0  IDiag  1:
 RMSU=  3.16D-03    CP:  9.79D-01
 E= -1490.81247272509     Delta-E=       -0.216097764822 Rises=F Damp=T
 DIIS: error= 1.55D-02 at cycle   2 NSaved=   2.
 NSaved= 2 IEnMin= 2 EnMin= -1490.81247272509     IErMin= 2 ErrMin= 1.55D-02
 ErrMax= 1.55D-02  0.00D+00 EMaxC= 1.00D-01 BMatC= 9.13D-02 BMatP= 7.31D-01
 IDIUse=3 WtCom= 8.45D-01 WtEn= 1.55D-01
 Coeff-Com: -0.264D+00 0.126D+01
 Coeff-En:   0.000D+00 0.100D+01
 Coeff:     -0.223D+00 0.122D+01
 Gap=     0.399 Goal=   None    Shift=    0.000
 RMSDP=2.22D-03 MaxDP=6.58D-02 DE=-2.16D-01 OVMax= 1.62D-01

 Cycle   3  Pass 0  IDiag  1:
 RMSU=  2.08D-03    CP:  9.63D-01  1.21D+00
 E= -1491.00395457723     Delta-E=       -0.191481852139 Rises=F Damp=F
 DIIS: error= 7.79D-03 at cycle   3 NSaved=   3.
 NSaved= 3 IEnMin= 3 EnMin= -1491.00395457723     IErMin= 3 ErrMin= 7.79D-03
 ErrMax= 7.79D-03  0.00D+00 EMaxC= 1.00D-01 BMatC= 2.20D-02 BMatP= 9.13D-02
 IDIUse=3 WtCom= 9.22D-01 WtEn= 7.79D-02
 Coeff-Com: -0.173D+00 0.475D+00 0.698D+00
 Coeff-En:   0.000D+00 0.000D+00 0.100D+01
 Coeff:     -0.159D+00 0.438D+00 0.722D+00
 Gap=     0.322 Goal=   None    Shift=    0.000
 RMSDP=9.19D-04 MaxDP=1.99D-02 DE=-1.91D-01 OVMax= 5.88D-02

 Cycle   4  Pass 0  IDiag  1:
 RMSU=  6.80D-04    CP:  9.58D-01  1.36D+00  8.22D-01
 E= -1491.02670215294     Delta-E=       -0.022747575707 Rises=F Damp=F
 DIIS: error= 1.81D-03 at cycle   4 NSaved=   4.
 NSaved= 4 IEnMin= 4 EnMin= -1491.02670215294     IErMin= 4 ErrMin= 1.81D-03
 ErrMax= 1.81D-03  0.00D+00 EMaxC= 1.00D-01 BMatC= 2.12D-03 BMatP= 2.20D-02
 IDIUse=3 WtCom= 9.82D-01 WtEn= 1.81D-02
 Coeff-Com: -0.452D-01 0.930D-01 0.297D+00 0.655D+00
 Coeff-En:   0.000D+00 0.000D+00 0.000D+00 0.100D+01
 Coeff:     -0.444D-01 0.914D-01 0.292D+00 0.661D+00
 Gap=     0.296 Goal=   None    Shift=    0.000
 RMSDP=2.64D-04 MaxDP=7.33D-03 DE=-2.27D-02 OVMax= 1.45D-02

 Cycle   5  Pass 0  IDiag  1:
 RMSU=  1.54D-04    CP:  9.57D-01  1.36D+00  9.04D-01  8.12D-01
 E= -1491.02899753390     Delta-E=       -0.002295380961 Rises=F Damp=F
 DIIS: error= 6.32D-04 at cycle   5 NSaved=   5.
 NSaved= 5 IEnMin= 5 EnMin= -1491.02899753390     IErMin= 5 ErrMin= 6.32D-04
 ErrMax= 6.32D-04  0.00D+00 EMaxC= 1.00D-01 BMatC= 1.49D-04 BMatP= 2.12D-03
 IDIUse=3 WtCom= 9.94D-01 WtEn= 6.32D-03
 Coeff-Com: -0.690D-02 0.667D-02 0.816D-01 0.282D+00 0.637D+00
 Coeff-En:   0.000D+00 0.000D+00 0.000D+00 0.000D+00 0.100D+01
 Coeff:     -0.686D-02 0.663D-02 0.810D-01 0.280D+00 0.639D+00
 Gap=     0.296 Goal=   None    Shift=    0.000
 RMSDP=8.96D-05 MaxDP=1.85D-03 DE=-2.30D-03 OVMax= 5.08D-03

 Cycle   6  Pass 0  IDiag  1:
 RMSU=  6.94D-05    CP:  9.57D-01  1.36D+00  9.15D-01  8.74D-01  8.17D-01
 E= -1491.02920476217     Delta-E=       -0.000207228273 Rises=F Damp=F
 DIIS: error= 1.91D-04 at cycle   6 NSaved=   6.
 NSaved= 6 IEnMin= 6 EnMin= -1491.02920476217     IErMin= 6 ErrMin= 1.91D-04
 ErrMax= 1.91D-04  0.00D+00 EMaxC= 1.00D-01 BMatC= 1.66D-05 BMatP= 1.49D-04
 IDIUse=3 WtCom= 9.98D-01 WtEn= 1.91D-03
 Coeff-Com:  0.106D-01-0.229D-01-0.537D-01-0.983D-01 0.148D+00 0.102D+01
 Coeff-En:   0.000D+00 0.000D+00 0.000D+00 0.000D+00 0.000D+00 0.100D+01
 Coeff:      0.106D-01-0.229D-01-0.536D-01-0.981D-01 0.148D+00 0.102D+01
 Gap=     0.296 Goal=   None    Shift=    0.000
 RMSDP=5.20D-05 MaxDP=9.73D-04 DE=-2.07D-04 OVMax= 4.03D-03

 Cycle   7  Pass 0  IDiag  1:
 RMSU=  2.20D-05    CP:  9.56D-01  1.36D+00  9.26D-01  9.10D-01  1.01D+00
                    CP:  1.20D+00
 E= -1491.02925557378     Delta-E=       -0.000050811614 Rises=F Damp=F
 DIIS: error= 5.50D-05 at cycle   7 NSaved=   7.
 NSaved= 7 IEnMin= 7 EnMin= -1491.02925557378     IErMin= 7 ErrMin= 5.50D-05
 ErrMax= 5.50D-05  0.00D+00 EMaxC= 1.00D-01 BMatC= 1.60D-06 BMatP= 1.66D-05
 IDIUse=1 WtCom= 1.00D+00 WtEn= 0.00D+00
 Coeff-Com:  0.323D-02-0.603D-02-0.209D-01-0.531D-01-0.654D-02 0.302D+00
 Coeff-Com:  0.781D+00
 Coeff:      0.323D-02-0.603D-02-0.209D-01-0.531D-01-0.654D-02 0.302D+00
 Coeff:      0.781D+00
 Gap=     0.296 Goal=   None    Shift=    0.000
 RMSDP=1.16D-05 MaxDP=3.24D-04 DE=-5.08D-05 OVMax= 1.01D-03

 Cycle   8  Pass 0  IDiag  1:
 RMSU=  7.45D-06    CP:  9.56D-01  1.36D+00  9.27D-01  9.12D-01  1.04D+00
                    CP:  1.29D+00  1.15D+00
 E= -1491.02925945031     Delta-E=       -0.000003876530 Rises=F Damp=F
 DIIS: error= 2.46D-05 at cycle   8 NSaved=   8.
 NSaved= 8 IEnMin= 8 EnMin= -1491.02925945031     IErMin= 8 ErrMin= 2.46D-05
 ErrMax= 2.46D-05  0.00D+00 EMaxC= 1.00D-01 BMatC= 2.07D-07 BMatP= 1.60D-06
 IDIUse=1 WtCom= 1.00D+00 WtEn= 0.00D+00
 Coeff-Com: -0.156D-02 0.340D-02 0.715D-02 0.105D-01-0.223D-01-0.132D+00
 Coeff-Com:  0.882D-01 0.105D+01
 Coeff:     -0.156D-02 0.340D-02 0.715D-02 0.105D-01-0.223D-01-0.132D+00
 Coeff:      0.882D-01 0.105D+01
 Gap=     0.296 Goal=   None    Shift=    0.000
 RMSDP=6.37D-06 MaxDP=1.01D-04 DE=-3.88D-06 OVMax= 6.21D-04

 Initial convergence to 1.0D-05 achieved.  Increase integral accuracy.
 Cycle   9  Pass 1  IDiag  1:
 E= -1491.02923050640     Delta-E=        0.000028943910 Rises=F Damp=F
 DIIS: error= 6.52D-05 at cycle   1 NSaved=   1.
 NSaved= 1 IEnMin= 1 EnMin= -1491.02923050640     IErMin= 1 ErrMin= 6.52D-05
 ErrMax= 6.52D-05  0.00D+00 EMaxC= 1.00D-01 BMatC= 7.72D-07 BMatP= 7.72D-07
 IDIUse=1 WtCom= 1.00D+00 WtEn= 0.00D+00
 Coeff-Com:  0.100D+01
 Coeff:      0.100D+01
 Gap=     0.296 Goal=   None    Shift=    0.000
 RMSDP=6.37D-06 MaxDP=1.01D-04 DE= 2.89D-05 OVMax= 1.72D-04

 Cycle  10  Pass 1  IDiag  1:
 RMSU=  4.56D-05    CP:  1.00D+00
 E= -1491.02923121589     Delta-E=       -0.000000709484 Rises=F Damp=F
 DIIS: error= 5.73D-06 at cycle   2 NSaved=   2.
 NSaved= 2 IEnMin= 2 EnMin= -1491.02923121589     IErMin= 2 ErrMin= 5.73D-06
 ErrMax= 5.73D-06  0.00D+00 EMaxC= 1.00D-01 BMatC= 2.38D-08 BMatP= 7.72D-07
 IDIUse=1 WtCom= 1.00D+00 WtEn= 0.00D+00
 Coeff-Com: -0.104D-01 0.101D+01
 Coeff:     -0.104D-01 0.101D+01
 Gap=     0.296 Goal=   None    Shift=    0.000
 RMSDP=3.15D-06 MaxDP=4.72D-05 DE=-7.09D-07 OVMax= 9.46D-05

 Cycle  11  Pass 1  IDiag  1:
 RMSU=  1.54D-06    CP:  1.00D+00  1.06D+00
 E= -1491.02923125091     Delta-E=       -0.000000035022 Rises=F Damp=F
 DIIS: error= 6.13D-06 at cycle   3 NSaved=   3.
 NSaved= 3 IEnMin= 3 EnMin= -1491.02923125091     IErMin= 2 ErrMin= 5.73D-06
 ErrMax= 6.13D-06  0.00D+00 EMaxC= 1.00D-01 BMatC= 1.85D-08 BMatP= 2.38D-08
 IDIUse=1 WtCom= 1.00D+00 WtEn= 0.00D+00
 Coeff-Com: -0.304D-01 0.479D+00 0.551D+00
 Coeff:     -0.304D-01 0.479D+00 0.551D+00
 Gap=     0.296 Goal=   None    Shift=    0.000
 RMSDP=6.49D-07 MaxDP=2.12D-05 DE=-3.50D-08 OVMax= 3.10D-05

 Cycle  12  Pass 1  IDiag  1:
 RMSU=  6.07D-07    CP:  1.00D+00  1.06D+00  9.35D-01
 E= -1491.02923127119     Delta-E=       -0.000000020277 Rises=F Damp=F
 DIIS: error= 2.52D-06 at cycle   4 NSaved=   4.
 NSaved= 4 IEnMin= 4 EnMin= -1491.02923127119     IErMin= 4 ErrMin= 2.52D-06
 ErrMax= 2.52D-06  0.00D+00 EMaxC= 1.00D-01 BMatC= 1.85D-09 BMatP= 1.85D-08
 IDIUse=1 WtCom= 1.00D+00 WtEn= 0.00D+00
 Coeff-Com: -0.879D-02 0.344D-01 0.195D+00 0.780D+00
 Coeff:     -0.879D-02 0.344D-01 0.195D+00 0.780D+00
 Gap=     0.296 Goal=   None    Shift=    0.000
 RMSDP=3.35D-07 MaxDP=1.31D-05 DE=-2.03D-08 OVMax= 2.94D-05

 Cycle  13  Pass 1  IDiag  1:
 RMSU=  2.61D-07    CP:  1.00D+00  1.07D+00  1.06D+00  1.12D+00
 E= -1491.02923127568     Delta-E=       -0.000000004491 Rises=F Damp=F
 DIIS: error= 1.42D-06 at cycle   5 NSaved=   5.
 NSaved= 5 IEnMin= 5 EnMin= -1491.02923127568     IErMin= 5 ErrMin= 1.42D-06
 ErrMax= 1.42D-06  0.00D+00 EMaxC= 1.00D-01 BMatC= 7.00D-10 BMatP= 1.85D-09
 IDIUse=1 WtCom= 1.00D+00 WtEn= 0.00D+00
 Coeff-Com:  0.585D-02-0.150D+00-0.860D-01 0.412D+00 0.819D+00
 Coeff:      0.585D-02-0.150D+00-0.860D-01 0.412D+00 0.819D+00
 Gap=     0.296 Goal=   None    Shift=    0.000
 RMSDP=2.61D-07 MaxDP=7.10D-06 DE=-4.49D-09 OVMax= 2.61D-05

 Cycle  14  Pass 1  IDiag  1:
 RMSU=  1.50D-07    CP:  1.00D+00  1.07D+00  1.14D+00  1.38D+00  1.30D+00
 E= -1491.02923127780     Delta-E=       -0.000000002122 Rises=F Damp=F
 DIIS: error= 4.95D-07 at cycle   6 NSaved=   6.
 NSaved= 6 IEnMin= 6 EnMin= -1491.02923127780     IErMin= 6 ErrMin= 4.95D-07
 ErrMax= 4.95D-07  0.00D+00 EMaxC= 1.00D-01 BMatC= 6.55D-11 BMatP= 7.00D-10
 IDIUse=1 WtCom= 1.00D+00 WtEn= 0.00D+00
 Coeff-Com:  0.336D-02-0.488D-01-0.608D-01-0.339D-01 0.227D+00 0.913D+00
 Coeff:      0.336D-02-0.488D-01-0.608D-01-0.339D-01 0.227D+00 0.913D+00
 Gap=     0.296 Goal=   None    Shift=    0.000
 RMSDP=1.11D-07 MaxDP=2.66D-06 DE=-2.12D-09 OVMax= 1.16D-05

 Cycle  15  Pass 1  IDiag  1:
 RMSU=  5.73D-08    CP:  1.00D+00  1.07D+00  1.17D+00  1.47D+00  1.52D+00
                    CP:  1.21D+00
 E= -1491.02923127810     Delta-E=       -0.000000000301 Rises=F Damp=F
 DIIS: error= 1.31D-07 at cycle   7 NSaved=   7.
 NSaved= 7 IEnMin= 7 EnMin= -1491.02923127810     IErMin= 7 ErrMin= 1.31D-07
 ErrMax= 1.31D-07  0.00D+00 EMaxC= 1.00D-01 BMatC= 5.54D-12 BMatP= 6.55D-11
 IDIUse=1 WtCom= 1.00D+00 WtEn= 0.00D+00
 Coeff-Com: -0.745D-04 0.102D-01-0.159D-03-0.604D-01-0.681D-01 0.146D+00
 Coeff-Com:  0.972D+00
 Coeff:     -0.745D-04 0.102D-01-0.159D-03-0.604D-01-0.681D-01 0.146D+00
 Coeff:      0.972D+00
 Gap=     0.296 Goal=   None    Shift=    0.000
 RMSDP=3.63D-08 MaxDP=6.83D-07 DE=-3.01D-10 OVMax= 3.66D-06

 Cycle  16  Pass 1  IDiag  1:
 RMSU=  1.64D-08    CP:  1.00D+00  1.07D+00  1.17D+00  1.49D+00  1.60D+00
                    CP:  1.33D+00  1.12D+00
 E= -1491.02923127815     Delta-E=       -0.000000000050 Rises=F Damp=F
 DIIS: error= 5.36D-08 at cycle   8 NSaved=   8.
 NSaved= 8 IEnMin= 8 EnMin= -1491.02923127815     IErMin= 8 ErrMin= 5.36D-08
 ErrMax= 5.36D-08  0.00D+00 EMaxC= 1.00D-01 BMatC= 1.28D-12 BMatP= 5.54D-12
 IDIUse=1 WtCom= 1.00D+00 WtEn= 0.00D+00
 Coeff-Com: -0.318D-03 0.855D-02 0.517D-02-0.223D-01-0.474D-01-0.174D-01
 Coeff-Com:  0.410D+00 0.664D+00
 Coeff:     -0.318D-03 0.855D-02 0.517D-02-0.223D-01-0.474D-01-0.174D-01
 Coeff:      0.410D+00 0.664D+00
 Gap=     0.296 Goal=   None    Shift=    0.000
 RMSDP=8.62D-09 MaxDP=1.87D-07 DE=-4.96D-11 OVMax= 5.83D-07

 SCF Done:  E(RwB97XD) =  -1491.02923128     A.U. after   16 cycles
            NFock= 16  Conv=0.86D-08     -V/T= 2.0052
 KE= 1.483262712115D+03 PE=-5.991776223337D+03 EE= 1.776585614165D+03
 Leave Link  502 at Fri Mar  6 17:32:01 2026, MaxMem=  2415919104 cpu:             187.1 elap:              17.9
 (Enter /prod/precompiled/gaussian/16c2/g16/l508.exe)
 QCSCF skips out because SCF is already converged.
 Leave Link  508 at Fri Mar  6 17:32:01 2026, MaxMem=  2415919104 cpu:               0.1 elap:               0.1
 (Enter /prod/precompiled/gaussian/16c2/g16/l801.exe)
 DoSCS=F DFT=T ScalE2(SS,OS)=  1.000000  1.000000
 Range of M.O.s used for correlation:     1   272
 NBasis=   272 NAE=    64 NBE=    64 NFC=     0 NFV=     0
 NROrb=    272 NOA=    64 NOB=    64 NVA=   208 NVB=   208

 **** Warning!!: The largest alpha MO coefficient is  0.10971315D+02

 Leave Link  801 at Fri Mar  6 17:32:01 2026, MaxMem=  2415919104 cpu:               0.3 elap:               0.1
 (Enter /prod/precompiled/gaussian/16c2/g16/l1101.exe)
 Using compressed storage, NAtomX=    24.
 Will process     25 centers per pass.
   1 Symmetry operations used in ECPInt.
 ECPInt:  NShTT=    7750 NPrTT=   30142 LenC2=    7388 LenP2D=   20350.
 LDataN:  DoStor=T MaxTD1= 5 Len=  102
 R6Disp: Adding Grimme-D2 dispersion energy 1st derivatives to the gradient.
 Leave Link 1101 at Fri Mar  6 17:32:01 2026, MaxMem=  2415919104 cpu:               1.7 elap:               0.3
 (Enter /prod/precompiled/gaussian/16c2/g16/l1102.exe)
 Symmetrizing basis deriv contribution to polar:
 IMax=3 JMax=2 DiffMx= 0.00D+00
 Leave Link 1102 at Fri Mar  6 17:32:02 2026, MaxMem=  2415919104 cpu:               0.2 elap:               0.2
 (Enter /prod/precompiled/gaussian/16c2/g16/l1110.exe)
 Forming Gx(P) for the SCF density, NAtomX=    24.
 Integral derivatives from FoFJK, PRISM(SPDF).
 Do as many integral derivatives as possible in FoFJK.
 G2DrvN: MDV=    2415916544.
 G2DrvN: will do    25 centers at a time, making    1 passes.
 Calling FoFCou, ICntrl=  3107 FMM=F I1Cent=   0 AccDes= 0.00D+00.
 FoFJK:  IHMeth= 1 ICntrl=    3107 DoSepK=T KAlg= 0 I1Cent=           0 FoldK=F
 IRaf=         1 NMat=       1 IRICut=       1 DoRegI=T DoRafI=F ISym2E= 0 IDoP0=0 IntGTp=1.
 FoFCou: FMM=F IPFlag=           0 FMFlag=      100000 FMFlg1=           0
         NFxFlg=           0 DoJE=F BraDBF=F KetDBF=F FulRan=T
         wScrn=  0.000000 ICntrl=      3507 IOpCl=  0 I1Cent=           0 NGrid=           0
         NMat0=    1 NMatS0=      1 NMatT0=    0 NMatD0=    1 NMtDS0=    0 NMtDT0=    0
 Symmetry not used in FoFCou.
 End of G2Drv F.D. properties file   721 does not exist.
 End of G2Drv F.D. properties file   722 does not exist.
 End of G2Drv F.D. properties file   788 does not exist.
 Leave Link 1110 at Fri Mar  6 17:32:27 2026, MaxMem=  2415919104 cpu:             261.4 elap:              25.0
 (Enter /prod/precompiled/gaussian/16c2/g16/l1002.exe)
 Minotr:  Closed shell wavefunction.
          IDoAtm=111111111111111111111111
          Direct CPHF calculation.
          Differentiating once with respect to electric field.
                with respect to dipole field.
          Differentiating once with respect to nuclear coordinates.
          Requested convergence is 1.0D-08 RMS, and 1.0D-07 maximum.
          Secondary convergence is 1.0D-12 RMS, and 1.0D-12 maximum.
          NewPWx=T KeepS1=F KeepF1=F KeepIn=T MapXYZ=F SortEE=F KeepMc=T.
         7181 words used for storage of precomputed grid.
 Keep R1 ints in memory in canonical form, NReq=1402150871.
 FoFCou: FMM=F IPFlag=           0 FMFlag=           0 FMFlg1=           0
         NFxFlg=           0 DoJE=F BraDBF=F KetDBF=F FulRan=T
         wScrn=  0.000000 ICntrl=       600 IOpCl=  0 I1Cent=           0 NGrid=           0
         NMat0=    1 NMatS0=  37128 NMatT0=    0 NMatD0=    1 NMtDS0=    0 NMtDT0=    0
 Symmetry not used in FoFCou.
 Two-electron integral symmetry not used.
          MDV=    2415919104 using IRadAn=       1.
          Solving linear equations simultaneously, MaxMat=       0.
          There are    75 degrees of freedom in the 1st order CPHF.  IDoFFX=6 NUNeed=     3.
     72 vectors produced by pass  0 Test12= 1.77D-14 1.33D-09 XBig12= 9.96D+01 3.53D+00.
 AX will form    72 AO Fock derivatives at one time.
     72 vectors produced by pass  1 Test12= 1.77D-14 1.33D-09 XBig12= 9.95D+00 5.21D-01.
     72 vectors produced by pass  2 Test12= 1.77D-14 1.33D-09 XBig12= 2.46D-01 6.34D-02.
     72 vectors produced by pass  3 Test12= 1.77D-14 1.33D-09 XBig12= 5.46D-03 1.29D-02.
     72 vectors produced by pass  4 Test12= 1.77D-14 1.33D-09 XBig12= 6.39D-05 1.00D-03.
     72 vectors produced by pass  5 Test12= 1.77D-14 1.33D-09 XBig12= 3.89D-07 6.32D-05.
     67 vectors produced by pass  6 Test12= 1.77D-14 1.33D-09 XBig12= 2.32D-09 5.79D-06.
     37 vectors produced by pass  7 Test12= 1.77D-14 1.33D-09 XBig12= 1.23D-11 4.41D-07.
      3 vectors produced by pass  8 Test12= 1.77D-14 1.33D-09 XBig12= 6.66D-14 2.66D-08.
      1 vectors produced by pass  9 Test12= 1.77D-14 1.33D-09 XBig12= 3.22D-16 1.66D-09.
 InvSVY:  IOpt=1 It=  1 EMax= 1.07D-14
 Solved reduced A of dimension   540 with    75 vectors.
 FullF1:  Do perturbations      1 to       3.
 Isotropic polarizability for W=    0.000000      151.11 Bohr**3.
 End of Minotr F.D. properties file   721 does not exist.
 End of Minotr F.D. properties file   722 does not exist.
 End of Minotr F.D. properties file   788 does not exist.
 Leave Link 1002 at Fri Mar  6 17:33:17 2026, MaxMem=  2415919104 cpu:             393.5 elap:              50.5
 (Enter /prod/precompiled/gaussian/16c2/g16/l601.exe)
 Copying SCF densities to generalized density rwf, IOpCl= 0 IROHF=0.

 **********************************************************************

            Population analysis using the SCF Density.

 **********************************************************************

 Alpha  occ. eigenvalues -- -101.68983-101.68978 -14.51783 -14.51756 -10.37410
 Alpha  occ. eigenvalues --  -10.37406 -10.35640 -10.35632 -10.32804 -10.32799
 Alpha  occ. eigenvalues --  -10.32700 -10.32695 -10.32385 -10.32383 -10.32339
 Alpha  occ. eigenvalues --  -10.32336  -9.59742  -9.59737  -7.35130  -7.35126
 Alpha  occ. eigenvalues --   -7.34161  -7.34156  -7.34115  -7.34110  -1.16212
 Alpha  occ. eigenvalues --   -1.01106  -1.00180  -0.94869  -0.94674  -0.90320
 Alpha  occ. eigenvalues --   -0.86893  -0.84609  -0.84157  -0.78400  -0.73774
 Alpha  occ. eigenvalues --   -0.72155  -0.71155  -0.67499  -0.65314  -0.60097
 Alpha  occ. eigenvalues --   -0.59418  -0.59330  -0.58286  -0.54897  -0.54654
 Alpha  occ. eigenvalues --   -0.54353  -0.53086  -0.52987  -0.50176  -0.48863
 Alpha  occ. eigenvalues --   -0.47995  -0.47583  -0.47244  -0.45730  -0.44506
 Alpha  occ. eigenvalues --   -0.43081  -0.43054  -0.40571  -0.40252  -0.35982
 Alpha  occ. eigenvalues --   -0.35568  -0.34208  -0.33225  -0.30456
 Alpha virt. eigenvalues --   -0.00816   0.02997   0.04349   0.05076   0.05403
 Alpha virt. eigenvalues --    0.10521   0.11091   0.15684   0.15770   0.17768
 Alpha virt. eigenvalues --    0.18026   0.20564   0.21054   0.21098   0.21443
 Alpha virt. eigenvalues --    0.22074   0.22382   0.28470   0.31472   0.32914
 Alpha virt. eigenvalues --    0.34559   0.34743   0.35348   0.35391   0.36391
 Alpha virt. eigenvalues --    0.37540   0.38000   0.40017   0.41363   0.45099
 Alpha virt. eigenvalues --    0.46077   0.46927   0.47894   0.49081   0.49631
 Alpha virt. eigenvalues --    0.50933   0.51154   0.52265   0.53711   0.54452
 Alpha virt. eigenvalues --    0.54552   0.55657   0.55745   0.56927   0.57999
 Alpha virt. eigenvalues --    0.59875   0.60009   0.61706   0.62007   0.63638
 Alpha virt. eigenvalues --    0.64258   0.64970   0.65414   0.67083   0.68004
 Alpha virt. eigenvalues --    0.68511   0.70804   0.71486   0.72105   0.72790
 Alpha virt. eigenvalues --    0.72957   0.73868   0.74251   0.75759   0.76124
 Alpha virt. eigenvalues --    0.76946   0.78212   0.78782   0.78941   0.79576
 Alpha virt. eigenvalues --    0.80126   0.81556   0.81748   0.82675   0.83013
 Alpha virt. eigenvalues --    0.84777   0.85588   0.85813   0.87198   0.88239
 Alpha virt. eigenvalues --    0.88863   0.89391   0.89573   0.91540   0.92674
 Alpha virt. eigenvalues --    0.93243   0.93563   0.95349   0.95535   0.99064
 Alpha virt. eigenvalues --    0.99464   1.00627   1.01758   1.03517   1.09199
 Alpha virt. eigenvalues --    1.09295   1.11020   1.11094   1.14204   1.15483
 Alpha virt. eigenvalues --    1.18464   1.19463   1.21872   1.24954   1.26325
 Alpha virt. eigenvalues --    1.28054   1.28640   1.31603   1.32386   1.32933
 Alpha virt. eigenvalues --    1.33311   1.34604   1.35624   1.36147   1.36279
 Alpha virt. eigenvalues --    1.37399   1.39054   1.45335   1.46908   1.53446
 Alpha virt. eigenvalues --    1.53983   1.56621   1.59086   1.60145   1.67216
 Alpha virt. eigenvalues --    1.68380   1.73577   1.73899   1.76762   1.78215
 Alpha virt. eigenvalues --    1.78603   1.78646   1.80726   1.82165   1.82546
 Alpha virt. eigenvalues --    1.83282   1.84181   1.84772   1.84954   1.86121
 Alpha virt. eigenvalues --    1.87109   1.88888   1.90582   1.92172   1.95311
 Alpha virt. eigenvalues --    1.97620   1.98157   1.99323   2.00813   2.01890
 Alpha virt. eigenvalues --    2.02141   2.02523   2.07058   2.07809   2.08797
 Alpha virt. eigenvalues --    2.12432   2.13597   2.14375   2.20548   2.21457
 Alpha virt. eigenvalues --    2.22236   2.23649   2.24107   2.29527   2.30548
 Alpha virt. eigenvalues --    2.31763   2.31837   2.33611   2.35164   2.35506
 Alpha virt. eigenvalues --    2.36272   2.37428   2.38886   2.39687   2.41807
 Alpha virt. eigenvalues --    2.43220   2.47866   2.51677   2.56538   2.56885
 Alpha virt. eigenvalues --    2.66099   2.66253   2.67783   2.70434   2.70628
 Alpha virt. eigenvalues --    2.70833   2.74447   2.79199   2.79447   2.82252
 Alpha virt. eigenvalues --    2.85211   2.88563   2.89129   2.91320   2.92336
 Alpha virt. eigenvalues --    2.94041   2.95034   3.05195   3.05620   3.12678
 Alpha virt. eigenvalues --    3.13949   3.15932   3.23455   3.30169   3.42769
 Alpha virt. eigenvalues --    3.45906   3.65950   3.69276
          Condensed to atoms (all electrons):
               1          2          3          4          5          6
     1  C    5.271378   0.227058  -0.074872   0.079671  -0.143807   0.100023
     2  C    0.227058   5.237158   0.262553   0.347614   0.089150  -0.155055
     3  Cl  -0.074872   0.262553  16.907256  -0.052452   0.002711   0.000535
     4  C    0.079671   0.347614  -0.052452   4.987583   0.303338   0.082731
     5  C   -0.143807   0.089150   0.002711   0.303338   5.061697   0.287857
     6  C    0.100023  -0.155055   0.000535   0.082731   0.287857   5.065419
     7  C    0.330991   0.065390   0.001911  -0.112306   0.067973   0.297380
     8  N    0.318894  -0.083135   0.005315   0.004018   0.000027   0.006379
     9  N   -0.059296   0.003345  -0.000002  -0.000244  -0.000006   0.000050
    10  C   -0.000836  -0.001598  -0.000771  -0.000027  -0.000183  -0.000634
    11  C   -0.001633  -0.000947  -0.000006   0.000008   0.000022   0.000077
    12  Cl  -0.000773  -0.000006   0.000000  -0.000000   0.000000   0.000163
    13  C   -0.000026   0.000007  -0.000000   0.000006  -0.000012   0.000039
    14  C   -0.000184   0.000022   0.000000  -0.000012   0.000004  -0.000000
    15  C   -0.000628   0.000073   0.000160   0.000038  -0.000000  -0.000078
    16  C   -0.003783   0.000498  -0.004414   0.000194   0.000178  -0.000018
    17  H    0.016874  -0.065193   0.001515   0.441686  -0.059209   0.012171
    18  H   -0.001775   0.013957  -0.000103  -0.061860   0.446656  -0.064143
    19  H    0.014226  -0.001497   0.000008   0.012119  -0.065631   0.444593
    20  H   -0.076993   0.018814  -0.000066  -0.002897   0.013746  -0.061283
    21  H    0.000003  -0.000000  -0.000000   0.000000   0.000000  -0.000003
    22  H   -0.000002  -0.000000   0.000000   0.000000  -0.000000   0.000000
    23  H    0.000044   0.000018  -0.000013   0.000009  -0.000002   0.000004
    24  H   -0.004437  -0.005781   0.018598  -0.000501   0.000056   0.000062
               7          8          9         10         11         12
     1  C    0.330991   0.318894  -0.059296  -0.000836  -0.001633  -0.000773
     2  C    0.065390  -0.083135   0.003345  -0.001598  -0.000947  -0.000006
     3  Cl   0.001911   0.005315  -0.000002  -0.000771  -0.000006   0.000000
     4  C   -0.112306   0.004018  -0.000244  -0.000027   0.000008  -0.000000
     5  C    0.067973   0.000027  -0.000006  -0.000183   0.000022   0.000000
     6  C    0.297380   0.006379   0.000050  -0.000634   0.000077   0.000163
     7  C    5.010825  -0.051538  -0.014099  -0.003744   0.000506  -0.004512
     8  N   -0.051538   6.534519   0.404248  -0.059308   0.003317   0.000005
     9  N   -0.014099   0.404248   6.534702   0.318671  -0.083109   0.005306
    10  C   -0.003744  -0.059308   0.318671   5.271685   0.227195  -0.074978
    11  C    0.000506   0.003317  -0.083109   0.227195   5.237297   0.262618
    12  Cl  -0.004512   0.000005   0.005306  -0.074978   0.262618  16.907050
    13  C    0.000198  -0.000245   0.004023   0.079638   0.347484  -0.052415
    14  C    0.000179  -0.000006   0.000028  -0.143756   0.089104   0.002709
    15  C   -0.000019   0.000049   0.006383   0.099969  -0.155043   0.000535
    16  C    0.001416  -0.014053  -0.051560   0.331086   0.065430   0.001912
    17  H   -0.001824  -0.000081   0.000003   0.000003  -0.000000  -0.000000
    18  H    0.012740   0.000006   0.000000  -0.000002  -0.000000   0.000000
    19  H   -0.058480  -0.000100  -0.000001   0.000045   0.000018  -0.000013
    20  H    0.440577  -0.009450   0.003751  -0.004499  -0.005886   0.018866
    21  H   -0.000006   0.000003  -0.000081   0.016872  -0.065175   0.001511
    22  H   -0.000001   0.000000   0.000006  -0.001774   0.013957  -0.000103
    23  H   -0.000027  -0.000001  -0.000100   0.014223  -0.001493   0.000008
    24  H    0.000557   0.003737  -0.009430  -0.077018   0.018804  -0.000066
              13         14         15         16         17         18
     1  C   -0.000026  -0.000184  -0.000628  -0.003783   0.016874  -0.001775
     2  C    0.000007   0.000022   0.000073   0.000498  -0.065193   0.013957
     3  Cl  -0.000000   0.000000   0.000160  -0.004414   0.001515  -0.000103
     4  C    0.000006  -0.000012   0.000038   0.000194   0.441686  -0.061860
     5  C   -0.000012   0.000004  -0.000000   0.000178  -0.059209   0.446656
     6  C    0.000039  -0.000000  -0.000078  -0.000018   0.012171  -0.064143
     7  C    0.000198   0.000179  -0.000019   0.001416  -0.001824   0.012740
     8  N   -0.000245  -0.000006   0.000049  -0.014053  -0.000081   0.000006
     9  N    0.004023   0.000028   0.006383  -0.051560   0.000003   0.000000
    10  C    0.079638  -0.143756   0.099969   0.331086   0.000003  -0.000002
    11  C    0.347484   0.089104  -0.155043   0.065430  -0.000000  -0.000000
    12  Cl  -0.052415   0.002709   0.000535   0.001912  -0.000000   0.000000
    13  C    4.987650   0.303406   0.082716  -0.112265   0.000000   0.000000
    14  C    0.303406   5.061548   0.288027   0.067879   0.000000  -0.000000
    15  C    0.082716   0.288027   5.065207   0.297497  -0.000003   0.000000
    16  C   -0.112265   0.067879   0.297497   5.010476  -0.000006  -0.000001
    17  H    0.000000   0.000000  -0.000003  -0.000006   0.639156  -0.011138
    18  H    0.000000  -0.000000   0.000000  -0.000001  -0.011138   0.642636
    19  H    0.000010  -0.000002   0.000004  -0.000027  -0.000179  -0.010566
    20  H   -0.000509   0.000057   0.000063   0.000557   0.000016  -0.000187
    21  H    0.441673  -0.059205   0.012168  -0.001824  -0.000000   0.000000
    22  H   -0.061859   0.446654  -0.064136   0.012739   0.000000  -0.000000
    23  H    0.012114  -0.065602   0.444548  -0.058461  -0.000000  -0.000000
    24  H   -0.002896   0.013743  -0.061240   0.440693  -0.000025   0.000002
              19         20         21         22         23         24
     1  C    0.014226  -0.076993   0.000003  -0.000002   0.000044  -0.004437
     2  C   -0.001497   0.018814  -0.000000  -0.000000   0.000018  -0.005781
     3  Cl   0.000008  -0.000066  -0.000000   0.000000  -0.000013   0.018598
     4  C    0.012119  -0.002897   0.000000   0.000000   0.000009  -0.000501
     5  C   -0.065631   0.013746   0.000000  -0.000000  -0.000002   0.000056
     6  C    0.444593  -0.061283  -0.000003   0.000000   0.000004   0.000062
     7  C   -0.058480   0.440577  -0.000006  -0.000001  -0.000027   0.000557
     8  N   -0.000100  -0.009450   0.000003   0.000000  -0.000001   0.003737
     9  N   -0.000001   0.003751  -0.000081   0.000006  -0.000100  -0.009430
    10  C    0.000045  -0.004499   0.016872  -0.001774   0.014223  -0.077018
    11  C    0.000018  -0.005886  -0.065175   0.013957  -0.001493   0.018804
    12  Cl  -0.000013   0.018866   0.001511  -0.000103   0.000008  -0.000066
    13  C    0.000010  -0.000509   0.441673  -0.061859   0.012114  -0.002896
    14  C   -0.000002   0.000057  -0.059205   0.446654  -0.065602   0.013743
    15  C    0.000004   0.000063   0.012168  -0.064136   0.444548  -0.061240
    16  C   -0.000027   0.000557  -0.001824   0.012739  -0.058461   0.440693
    17  H   -0.000179   0.000016  -0.000000   0.000000  -0.000000  -0.000025
    18  H   -0.010566  -0.000187   0.000000  -0.000000  -0.000000   0.000002
    19  H    0.643359  -0.011304  -0.000000  -0.000000  -0.000000  -0.000001
    20  H   -0.011304   0.663524  -0.000025   0.000002  -0.000001  -0.000132
    21  H   -0.000000  -0.000025   0.639132  -0.011135  -0.000179   0.000016
    22  H   -0.000000   0.000002  -0.011135   0.642625  -0.010567  -0.000187
    23  H   -0.000000  -0.000001  -0.000179  -0.010567   0.643334  -0.011296
    24  H   -0.000001  -0.000132   0.000016  -0.000187  -0.011296   0.663286
 Mulliken charges:
               1
     1  C    0.009883
     2  C    0.047553
     3  Cl  -0.067861
     4  C   -0.028716
     5  C   -0.004565
     6  C   -0.016268
     7  C    0.015914
     8  N   -0.062599
     9  N   -0.062586
    10  C    0.009741
    11  C    0.047456
    12  Cl  -0.067816
    13  C   -0.028737
    14  C   -0.004592
    15  C   -0.016290
    16  C    0.015859
    17  H    0.026233
    18  H    0.033780
    19  H    0.033420
    20  H    0.013260
    21  H    0.026255
    22  H    0.033781
    23  H    0.033441
    24  H    0.013455
 Sum of Mulliken charges =  -0.00000
 Mulliken charges with hydrogens summed into heavy atoms:
               1
     1  C    0.009883
     2  C    0.047553
     3  Cl  -0.067861
     4  C   -0.002483
     5  C    0.029215
     6  C    0.017151
     7  C    0.029174
     8  N   -0.062599
     9  N   -0.062586
    10  C    0.009741
    11  C    0.047456
    12  Cl  -0.067816
    13  C   -0.002482
    14  C    0.029189
    15  C    0.017150
    16  C    0.029314
 APT charges:
               1
     1  C    0.108242
     2  C    0.332601
     3  Cl  -0.281582
     4  C   -0.087367
     5  C   -0.041534
     6  C   -0.016551
     7  C   -0.101300
     8  N   -0.135751
     9  N   -0.137047
    10  C    0.108599
    11  C    0.331402
    12  Cl  -0.281452
    13  C   -0.087077
    14  C   -0.041613
    15  C   -0.016036
    16  C   -0.101786
    17  H    0.063105
    18  H    0.042813
    19  H    0.044860
    20  H    0.073398
    21  H    0.063030
    22  H    0.042847
    23  H    0.044880
    24  H    0.073320
 Sum of APT charges =   0.00000
 APT charges with hydrogens summed into heavy atoms:
               1
     1  C    0.108242
     2  C    0.332601
     3  Cl  -0.281582
     4  C   -0.024261
     5  C    0.001279
     6  C    0.028308
     7  C   -0.027902
     8  N   -0.135751
     9  N   -0.137047
    10  C    0.108599
    11  C    0.331402
    12  Cl  -0.281452
    13  C   -0.024048
    14  C    0.001234
    15  C    0.028844
    16  C   -0.028466
 Electronic spatial extent (au):  <R**2>=           4912.5574
 Charge=             -0.0000 electrons
 Dipole moment (field-independent basis, Debye):
    X=              3.8532    Y=              2.1872    Z=              1.1286  Tot=              4.5721
 Quadrupole moment (field-independent basis, Debye-Ang):
   XX=            -95.8948   YY=           -103.7225   ZZ=           -100.9015
   XY=             -4.3005   XZ=             -0.1263   YZ=             -1.3613
 Traceless Quadrupole moment (field-independent basis, Debye-Ang):
   XX=              4.2781   YY=             -3.5496   ZZ=             -0.7285
   XY=             -4.3005   XZ=             -0.1263   YZ=             -1.3613
 Octapole moment (field-independent basis, Debye-Ang**2):
  XXX=           -300.2117  YYY=            269.6421  ZZZ=              0.7460  XYY=           -102.5970
  XXY=             56.9812  XXZ=            -16.0950  XZZ=           -107.0528  YZZ=             91.3584
  YYZ=             14.9939  XYZ=              2.2780
 Hexadecapole moment (field-independent basis, Debye-Ang**3):
 XXXX=          -1990.5410 YYYY=          -1898.6289 ZZZZ=          -2373.6870 XXXY=            391.3849
 XXXZ=            334.5591 YYYX=            582.0352 YYYZ=           -358.3292 ZZZX=            400.5528
 ZZZY=           -307.7396 XXYY=           -656.7319 XXZZ=           -739.5060 YYZZ=           -697.9969
 XXYZ=           -105.3684 YYXZ=            156.2747 ZZXY=            173.1208
 N-N= 1.240898665779D+03 E-N=-5.991776237048D+03  KE= 1.483262712115D+03
  Exact polarizability:     140.291      -3.157     138.146     -13.965       3.546     174.884
 Approx polarizability:     171.223      11.329     159.994      -5.824      -7.611     210.265
 No NMR shielding tensors so no spin-rotation constants.
 Leave Link  601 at Fri Mar  6 17:33:17 2026, MaxMem=  2415919104 cpu:               0.9 elap:               0.2
 (Enter /prod/precompiled/gaussian/16c2/g16/l701.exe)
 ... and contract with generalized density number  0.
 Compute integral second derivatives.
 R6Disp: Adding Grimme-D2 dispersion energy 2nd derivatives to the Hessian.
   1 Symmetry operations used in ECPInt.
 ECPInt:  NShTT=    7750 NPrTT=   30142 LenC2=    7388 LenP2D=   20350.
 LDataN:  DoStor=T MaxTD1= 6 Len=  172
 Leave Link  701 at Fri Mar  6 17:33:18 2026, MaxMem=  2415919104 cpu:               1.3 elap:               0.3
 (Enter /prod/precompiled/gaussian/16c2/g16/l702.exe)
 L702 exits ... SP integral derivatives will be done elsewhere.
 Leave Link  702 at Fri Mar  6 17:33:18 2026, MaxMem=  2415919104 cpu:               0.3 elap:               0.1
 (Enter /prod/precompiled/gaussian/16c2/g16/l703.exe)
 Integral derivatives from FoFJK, PRISM(SPDF).
 Compute integral second derivatives, UseDBF=F ICtDFT=           0.
 Calling FoFJK, ICntrl=    100127 FMM=F ISym2X=0 I1Cent= 0 IOpClX= 0 NMat=1 NMatS=1 NMatT=0.
 FoFJK:  IHMeth= 1 ICntrl=  100127 DoSepK=T KAlg= 0 I1Cent=           0 FoldK=F
 IRaf=         1 NMat=       1 IRICut=       1 DoRegI=T DoRafI=F ISym2E= 0 IDoP0=0 IntGTp=1.
 FoFCou: FMM=F IPFlag=           0 FMFlag=      100000 FMFlg1=         800
         NFxFlg=           0 DoJE=F BraDBF=F KetDBF=F FulRan=T
         wScrn=  0.000000 ICntrl=    100527 IOpCl=  0 I1Cent=           0 NGrid=           0
         NMat0=    1 NMatS0=      1 NMatT0=    0 NMatD0=    1 NMtDS0=    0 NMtDT0=    0
 Symmetry not used in FoFCou.
 Leave Link  703 at Fri Mar  6 17:34:19 2026, MaxMem=  2415919104 cpu:             580.6 elap:              61.0
 (Enter /prod/precompiled/gaussian/16c2/g16/l716.exe)
 Dipole        = 1.51595377D+00 8.60508250D-01 4.44007436D-01
 Polarizability= 1.40291062D+02-3.15700233D+00 1.38146297D+02
                -1.39653483D+01 3.54617799D+00 1.74883645D+02
 Full mass-weighted force constant matrix:
 Low frequencies ---   -5.1608   -4.3373    0.0018    0.0029    0.0031    1.0071
 Low frequencies ---   33.0793   50.7459   51.3722
 Diagonal vibrational polarizability:
       11.6185776       8.5579012       8.1591124
 Harmonic frequencies (cm**-1), IR intensities (KM/Mole), Raman scattering
 activities (A**4/AMU), depolarization ratios for plane and unpolarized
 incident light, reduced masses (AMU), force constants (mDyne/A),
 and normal coordinates:
                           1         2         3         4         5
                           A         A         A         A         A
       Frequencies ---    33.0447   50.7308   51.3716   96.2398  121.6872
    Reduced masses ---     8.3305    8.0896    5.6789   13.1721    4.7193
   Force constants ---     0.0054    0.0123    0.0088    0.0719    0.0412
    IR Intensities ---     0.1820    0.4042    0.4514    0.0127    0.0656
 Coord Atom Element:
   1     1     6         -0.05246  -0.02738  -0.03457  -0.05291   0.14052
   2     1     6         -0.00890   0.10951  -0.00050  -0.14459  -0.00970
   3     1     6         -0.08163   0.00689  -0.04609   0.13221   0.01055
   1     2     6          0.07409   0.04069   0.05385  -0.01611   0.02200
   2     2     6         -0.01516   0.00472  -0.05351  -0.02737   0.03228
   3     2     6         -0.07874   0.01960  -0.03994   0.12499   0.00565
   1     3    17          0.20819   0.19444   0.01623   0.02759   0.07709
   2     3    17         -0.03726  -0.11832  -0.04880   0.10489  -0.00541
   3     3    17         -0.02101  -0.04392  -0.05555   0.33180  -0.01279
   1     4     6          0.09010  -0.00491   0.18783   0.02314  -0.14802
   2     4     6          0.00146  -0.00708  -0.12083   0.02358   0.09846
   3     4     6         -0.12303   0.07840  -0.02189   0.00432   0.01931
   1     5     6         -0.01950  -0.11382   0.22765   0.01276  -0.12930
   2     5     6          0.02188   0.08562  -0.13298  -0.04462   0.10496
   3     5     6         -0.16879   0.12555  -0.01046  -0.08688   0.04020
   1     6     6         -0.14205  -0.16339   0.12241  -0.03659   0.08847
   2     6     6          0.02472   0.18179  -0.07314  -0.15385   0.02478
   3     6     6         -0.17165   0.11495  -0.01906  -0.07660   0.05319
   1     7     6         -0.15939  -0.11725  -0.01035  -0.06782   0.21697
   2     7     6          0.00977   0.19209  -0.00690  -0.19710  -0.02467
   3     7     6         -0.12875   0.05497  -0.03697   0.04528   0.03890
   1     8     7         -0.06436  -0.03017  -0.07726  -0.05570   0.05843
   2     8     7         -0.02618   0.14733   0.02534  -0.13227   0.03477
   3     8     7         -0.04310  -0.05892  -0.05596   0.11116   0.00077
   1     9     7         -0.05778  -0.04048  -0.07497  -0.08044  -0.05285
   2     9     7         -0.06627   0.15298  -0.00102   0.04871  -0.02816
   3     9     7          0.01431  -0.07419  -0.02539  -0.14965  -0.03230
   1    10     6         -0.05505  -0.03955  -0.07284  -0.08044  -0.05534
   2    10     6         -0.06822   0.08372   0.01476   0.06589  -0.12107
   3    10     6          0.04960  -0.02422   0.01522  -0.17118  -0.04804
   1    11     6         -0.01236   0.00745  -0.04443   0.02437  -0.03745
   2    11     6          0.05738  -0.06895   0.02890   0.03374  -0.00147
   3    11     6          0.09862  -0.02751   0.03545  -0.12244  -0.01270
   1    12    17          0.04046   0.07827  -0.01975   0.23247  -0.02152
   2    12    17          0.20749  -0.15336  -0.09211   0.05071  -0.06351
   3    12    17          0.10957  -0.09602  -0.01725  -0.25124  -0.04404
   1    13     6         -0.01062   0.00345  -0.03505   0.03159  -0.02520
   2    13     6          0.05780  -0.17709   0.14766   0.00898   0.16925
   3    13     6          0.14044   0.01499   0.09743   0.00947   0.05526
   1    14     6         -0.05231  -0.04868  -0.05615  -0.06403  -0.04698
   2    14     6         -0.06479  -0.13153   0.24544   0.01218   0.15289
   3    14     6          0.13200   0.06003   0.13701   0.06712   0.06424
   1    15     6         -0.09603  -0.09506  -0.08749  -0.16648  -0.07903
   2    15     6         -0.18475   0.02028   0.20677   0.03218  -0.07083
   3    15     6          0.08393   0.06294   0.11211   0.01265   0.00305
   1    16     6         -0.09777  -0.08941  -0.09614  -0.16375  -0.08708
   2    16     6         -0.18748   0.12676   0.08880   0.06036  -0.19845
   3    16     6          0.04309   0.01991   0.04986  -0.11487  -0.05181
   1    17     1          0.18879   0.04704   0.26383   0.06035  -0.28711
   2    17     1         -0.00221  -0.08879  -0.16589   0.11183   0.14050
   3    17     1         -0.12064   0.08585  -0.01677  -0.00163   0.01308
   1    18     1         -0.00683  -0.15335   0.33943   0.03885  -0.26863
   2    18     1          0.03402   0.07859  -0.18845  -0.01336   0.16136
   3    18     1         -0.20231   0.17085   0.00452  -0.16777   0.04575
   1    19     1         -0.22436  -0.23786   0.15041  -0.05431   0.13397
   2    19     1          0.03843   0.24986  -0.08095  -0.20966   0.01382
   3    19     1         -0.20847   0.15311  -0.01058  -0.15971   0.06900
   1    20     1         -0.24961  -0.15203  -0.07561  -0.11280   0.33576
   2    20     1          0.00943   0.25957   0.03053  -0.27560  -0.05140
   3    20     1         -0.12993   0.04651  -0.04196   0.05334   0.04358
   1    21     1          0.02350   0.04136  -0.01183   0.11446   0.00182
   2    21     1          0.15537  -0.30092   0.16552  -0.00734   0.30643
   3    21     1          0.17910   0.00992   0.11372   0.05091   0.09830
   1    22     1         -0.05105  -0.05269  -0.04807  -0.06166  -0.03636
   2    22     1         -0.06351  -0.21873   0.34624  -0.00361   0.29542
   3    22     1          0.16372   0.09157   0.18649   0.15424   0.11430
   1    23     1         -0.12935  -0.13735  -0.10511  -0.25180  -0.09588
   2    23     1         -0.27631   0.05032   0.27409   0.02679  -0.11774
   3    23     1          0.07922   0.09725   0.14151   0.06354   0.00037
   1    24     1         -0.13115  -0.12196  -0.11758  -0.24190  -0.11720
   2    24     1         -0.27506   0.22502   0.06868   0.06958  -0.31164
   3    24     1          0.00629   0.01952   0.03290  -0.15842  -0.09145
                           6         7         8         9        10
                           A         A         A         A         A
       Frequencies ---   157.9136  211.6707  241.8321  266.2730  337.6632
    Reduced masses ---     4.8479    6.0051   12.8093    6.3694    5.4156
   Force constants ---     0.0712    0.1585    0.4414    0.2661    0.3638
    IR Intensities ---     0.0407    0.2013    1.0366    0.2289    0.1890
 Coord Atom Element:
   1     1     6          0.00432   0.20463  -0.05376   0.16199   0.05876
   2     1     6         -0.03142  -0.05897   0.07717  -0.08675  -0.02867
   3     1     6         -0.01046   0.01678   0.11457   0.10020  -0.12075
   1     2     6         -0.07166   0.20605  -0.02571   0.17284   0.10440
   2     2     6          0.01431  -0.05529   0.14052  -0.04635  -0.13322
   3     2     6         -0.02025   0.01731   0.09066   0.08110  -0.10770
   1     3    17          0.09755  -0.08241  -0.00525  -0.06435  -0.00232
   2     3    17         -0.06994   0.03972  -0.09671  -0.05810   0.04848
   3     3    17         -0.02317  -0.04890  -0.23818  -0.07856   0.06691
   1     4     6         -0.16864   0.16767   0.00010   0.12146   0.05092
   2     4     6          0.06386  -0.04862   0.14447   0.01834  -0.15522
   3     4     6         -0.03695   0.03328   0.05752   0.00562  -0.05064
   1     5     6         -0.05614  -0.05770   0.06947  -0.08182  -0.15239
   2     5     6          0.00119   0.06280   0.04607   0.05084  -0.00677
   3     5     6         -0.04491   0.02552  -0.04863  -0.10652   0.03007
   1     6     6          0.16592  -0.16684   0.05142  -0.08481  -0.01167
   2     6     6         -0.11439   0.11716  -0.03810  -0.02272   0.02999
   3     6     6         -0.02892   0.01767  -0.04533  -0.10130   0.03145
   1     7     6          0.16382   0.04170  -0.04558   0.10099   0.18550
   2     7     6         -0.11832   0.02440  -0.02862  -0.14282  -0.02073
   3     7     6         -0.01476   0.01429   0.00632   0.00001  -0.04044
   1     8     7         -0.02046   0.10523  -0.04997   0.08709  -0.07398
   2     8     7         -0.01914  -0.04323  -0.08727  -0.04021   0.04255
   3     8     7          0.00232   0.06961   0.43911   0.13510  -0.12832
   1     9     7         -0.02337  -0.03752  -0.09193   0.06047  -0.05132
   2     9     7         -0.00455  -0.12278  -0.11105   0.12647  -0.11123
   3     9     7         -0.01741   0.02586   0.42671  -0.09196   0.09164
   1    10     6         -0.02821  -0.04479  -0.08817   0.04005  -0.04965
   2    10     6          0.01742  -0.19750   0.05732   0.20435   0.03376
   3    10     6          0.00266  -0.05737   0.10461  -0.03963   0.12464
   1    11     6         -0.02651  -0.04794  -0.14052   0.06902  -0.10911
   2    11     6         -0.07042  -0.19681   0.07402   0.18666   0.12990
   3    11     6         -0.00916  -0.05779   0.05690  -0.00890   0.10756
   1    12    17         -0.02590   0.02143   0.17964  -0.10640   0.06729
   2    12    17          0.10949   0.09977   0.01021  -0.04107  -0.01238
   3    12    17          0.04447  -0.01750  -0.18348   0.02837  -0.04739
   1    13     6         -0.03405  -0.04401  -0.14093   0.06833  -0.12576
   2    13     6         -0.17801  -0.16827   0.06183   0.09352   0.11363
   3    13     6         -0.02237  -0.02835   0.01607   0.05084   0.02863
   1    14     6         -0.04165  -0.03820  -0.04638  -0.03718  -0.05639
   2    14     6         -0.05551   0.07191  -0.01947  -0.11987  -0.11116
   3    14     6          0.01743   0.03315  -0.08220   0.07044  -0.09310
   1    15     6         -0.03606  -0.03402   0.02750  -0.09551   0.03304
   2    15     6          0.18845   0.19228  -0.04894  -0.08427  -0.01857
   3    15     6          0.06827   0.05882  -0.05168   0.04673  -0.02699
   1    16     6         -0.03427  -0.04476   0.03892  -0.07226   0.04465
   2    16     6          0.19181  -0.02085   0.02034   0.15922   0.15044
   3    16     6          0.05295  -0.01010   0.03133   0.00870   0.10808
   1    17     1         -0.27802   0.19805   0.02628   0.14741   0.03041
   2    17     1          0.13005  -0.07579   0.22316   0.11220  -0.23950
   3    17     1         -0.04442   0.03601   0.05217  -0.00088  -0.04539
   1    18     1         -0.10684  -0.18042   0.14968  -0.23055  -0.36588
   2    18     1          0.03034   0.11738   0.05284   0.15468   0.05095
   3    18     1         -0.05935   0.02126  -0.12524  -0.18312   0.09196
   1    19     1          0.31153  -0.39187   0.11667  -0.24143  -0.07638
   2    19     1         -0.18772   0.22594  -0.10140   0.01199   0.10725
   3    19     1         -0.02685   0.00838  -0.08373  -0.15981   0.08800
   1    20     1          0.28110   0.00507  -0.06281   0.07570   0.29042
   2    20     1         -0.18328   0.05656  -0.10094  -0.22821   0.01899
   3    20     1         -0.00555   0.00998   0.01491   0.01003  -0.04340
   1    21     1         -0.02887  -0.03455  -0.21337   0.15207  -0.20173
   2    21     1         -0.30305  -0.20881   0.08332   0.06424   0.14530
   3    21     1         -0.04546  -0.03165  -0.01837   0.08981  -0.00488
   1    22     1         -0.04529  -0.02926  -0.05354  -0.04770  -0.07343
   2    22     1         -0.11485   0.19762  -0.06182  -0.31583  -0.29837
   3    22     1          0.01670   0.06828  -0.18415   0.09917  -0.22336
   1    23     1         -0.03409  -0.02480   0.06705  -0.15736   0.09238
   2    23     1          0.34535   0.43188  -0.12435  -0.24743  -0.09898
   3    23     1          0.11031   0.11901  -0.09701   0.03955  -0.08579
   1    24     1         -0.03419  -0.05503   0.10140  -0.14739   0.12060
   2    24     1          0.32393   0.02906  -0.00810   0.18880   0.21416
   3    24     1          0.07826  -0.00655   0.06299  -0.03040   0.16486
                          11        12        13        14        15
                           A         A         A         A         A
       Frequencies ---   349.0965  410.4379  439.7063  465.0465  465.7785
    Reduced masses ---     7.1077   13.7862    4.0951    3.5000    7.6286
   Force constants ---     0.5104    1.3683    0.4665    0.4460    0.9751
    IR Intensities ---     0.2903    0.1018    1.4095    4.5746    6.0234
 Coord Atom Element:
   1     1     6          0.00087  -0.07585   0.14568   0.10590   0.00279
   2     1     6          0.03071  -0.14051  -0.03916  -0.04663   0.12555
   3     1     6          0.11931   0.01999   0.02518  -0.01046  -0.11876
   1     2     6          0.06560   0.04986   0.06149   0.19268  -0.13333
   2     2     6         -0.03388   0.07338  -0.01724  -0.10632  -0.01513
   3     2     6          0.12662  -0.03237   0.03546  -0.01244  -0.08801
   1     3    17         -0.06973   0.11189  -0.03425  -0.00588  -0.04321
   2     3    17         -0.12798   0.23287  -0.06301   0.02819  -0.10723
   3     3    17          0.04072  -0.19363   0.03496  -0.00441   0.11195
   1     4     6          0.09411   0.03062  -0.11822  -0.12889   0.02809
   2     4     6          0.04652  -0.02673   0.11442   0.01887  -0.08130
   3     4     6         -0.01506   0.13906  -0.02866  -0.00835  -0.11909
   1     5     6         -0.07313  -0.05025   0.12969  -0.00062   0.00453
   2     5     6          0.05783  -0.01808   0.01080  -0.04514   0.01248
   3     5     6         -0.15234   0.16577  -0.02441   0.00786  -0.04097
   1     6     6         -0.00726  -0.10029   0.05260   0.08044   0.04364
   2     6     6         -0.02227  -0.15542   0.04472  -0.06054   0.19369
   3     6     6         -0.14184   0.17334  -0.02848   0.00971  -0.05643
   1     7     6          0.06292  -0.02111  -0.13223  -0.12797   0.14752
   2     7     6         -0.10303  -0.15743   0.10423   0.05380   0.14469
   3     7     6          0.00727   0.08682   0.00391  -0.03244  -0.09319
   1     8     7         -0.11557  -0.16182   0.09571   0.01651   0.04222
   2     8     7          0.24321  -0.18697  -0.00099   0.00198  -0.04319
   3     8     7         -0.07095   0.08560  -0.03472   0.00754   0.18269
   1     9     7         -0.11800  -0.18266  -0.02604   0.01343  -0.05917
   2     9     7          0.24240  -0.00655  -0.06972   0.01627  -0.09915
   3     9     7         -0.07245  -0.18807  -0.07108  -0.00328   0.15107
   1    10     6         -0.07434  -0.13606  -0.04062   0.00393  -0.05374
   2    10     6         -0.01314   0.01977  -0.14524   0.10588   0.09976
   3    10     6          0.09559  -0.07997  -0.02992   0.04570  -0.13282
   1    11     6         -0.05119   0.06634  -0.02599  -0.01268   0.10491
   2    11     6         -0.10283  -0.00756  -0.06793   0.20671   0.13104
   3    11     6          0.09061   0.06804   0.01009   0.06665  -0.01320
   1    12    17          0.11485   0.15270   0.05117   0.01694   0.05980
   2    12    17         -0.02253  -0.08139  -0.01496  -0.01976  -0.05161
   3    12    17          0.09495   0.26873   0.06104   0.00471   0.14326
   1    13     6         -0.06894   0.04881  -0.03027  -0.04466   0.10175
   2    13     6         -0.04890   0.07040   0.16385  -0.11504  -0.04363
   3    13     6         -0.06392  -0.11438  -0.00308  -0.03992  -0.10023
   1    14     6          0.04842   0.03460  -0.05202  -0.03375   0.00347
   2    14     6          0.12790   0.00991  -0.09242   0.02554   0.01433
   3    14     6         -0.11562  -0.16932  -0.07869  -0.01681  -0.04294
   1    15     6          0.07973  -0.09308  -0.04634  -0.00764  -0.15268
   2    15     6          0.02838   0.04472  -0.01142   0.09783   0.08884
   3    15     6         -0.11590  -0.22883  -0.05863   0.01362  -0.11437
   1    16     6          0.05325  -0.09801  -0.03058  -0.02043  -0.14209
   2    16     6         -0.11009   0.08646   0.16133  -0.13927  -0.02495
   3    16     6          0.00301  -0.12040   0.03327  -0.00774  -0.17823
   1    17     1          0.18342   0.00557  -0.31404  -0.42217   0.16502
   2    17     1          0.18391  -0.18701   0.25618   0.13304  -0.14071
   3    17     1         -0.02264   0.14929  -0.04285  -0.02414  -0.11164
   1    18     1         -0.19022  -0.06427   0.22018  -0.06988   0.01019
   2    18     1          0.14350   0.03300  -0.03422  -0.01673  -0.06359
   3    18     1         -0.21953   0.07754  -0.01069   0.00884   0.10096
   1    19     1         -0.05607  -0.13486   0.05188   0.12253   0.05259
   2    19     1         -0.04598  -0.15898   0.02822  -0.06310   0.25372
   3    19     1         -0.20374   0.14728  -0.05112   0.03471   0.02378
   1    20     1          0.02676   0.06621  -0.35110  -0.37184   0.29720
   2    20     1         -0.25155  -0.06749   0.17130   0.17277   0.11127
   3    20     1          0.02377   0.07898  -0.00758  -0.04895  -0.08923
   1    21     1         -0.21341  -0.08694  -0.05754  -0.08161   0.08618
   2    21     1         -0.04572   0.13714   0.40249  -0.41367  -0.20379
   3    21     1         -0.14010  -0.17214   0.03270  -0.12091  -0.14186
   1    22     1          0.05648   0.03330  -0.05922  -0.03945   0.00308
   2    22     1          0.28665  -0.04820  -0.19182  -0.04379  -0.06992
   3    22     1         -0.14419  -0.08687  -0.09316  -0.04322   0.09668
   1    23     1          0.14418  -0.12065  -0.02360   0.02049  -0.23672
   2    23     1          0.07095   0.01359  -0.01352   0.13831   0.09676
   3    23     1         -0.14330  -0.22132  -0.07390   0.00718  -0.06234
   1    24     1          0.18035   0.00816   0.01222  -0.03287  -0.17966
   2    24     1         -0.16636   0.10511   0.37909  -0.40171  -0.17886
   3    24     1          0.06683  -0.05599   0.09968  -0.06633  -0.23230
                          16        17        18        19        20
                           A         A         A         A         A
       Frequencies ---   499.1134  511.7761  544.8260  589.9282  646.6154
    Reduced masses ---     4.8135    6.2829    6.0397    4.4981    6.6229
   Force constants ---     0.7065    0.9696    1.0563    0.9223    1.6315
    IR Intensities ---     3.3056    1.9150    2.0916    0.0369    0.1127
 Coord Atom Element:
   1     1     6          0.01543  -0.14865  -0.17194   0.11440  -0.03935
   2     1     6         -0.06519  -0.00796  -0.02502  -0.13304  -0.01459
   3     1     6          0.05040   0.02423  -0.02082  -0.02243  -0.03387
   1     2     6         -0.20587   0.15006   0.10330  -0.01246  -0.06664
   2     2     6          0.13988  -0.00499  -0.01804  -0.01214  -0.05502
   3     2     6          0.03832   0.05553  -0.00717  -0.05368  -0.09639
   1     3    17          0.00906  -0.03715  -0.03013  -0.00310  -0.00111
   2     3    17         -0.03010  -0.04803  -0.03771  -0.02304   0.00324
   3     3    17         -0.01015   0.00336   0.00716   0.00878   0.00365
   1     4     6          0.05786   0.11006   0.11944  -0.07936   0.03589
   2     4     6          0.08101   0.11609   0.06560   0.06672  -0.10781
   3     4     6          0.00969  -0.01256  -0.06533  -0.10261  -0.16487
   1     5     6          0.13212  -0.03302  -0.04146   0.18728  -0.07263
   2     5     6          0.05660   0.23292   0.23416   0.04002   0.06565
   3     5     6          0.00515   0.00502   0.01635   0.02707  -0.00259
   1     6     6         -0.12858   0.13941   0.14831  -0.08523   0.13625
   2     6     6          0.07293   0.01576   0.03254   0.12849   0.10058
   3     6     6          0.00111   0.03657   0.04780   0.01879   0.00229
   1     7     6          0.07638  -0.04888  -0.04701   0.08762  -0.02869
   2     7     6         -0.06565   0.02417   0.04382  -0.00654   0.11959
   3     7     6          0.09483   0.12628   0.12184   0.08097   0.01985
   1     8     7          0.07587  -0.19167  -0.00995  -0.11682   0.04590
   2     8     7         -0.05742  -0.04989  -0.19386  -0.08814  -0.19278
   3     8     7         -0.12010  -0.10900  -0.09145  -0.00551   0.28371
   1     9     7          0.06502  -0.16384   0.19951  -0.12248  -0.01861
   2     9     7         -0.06347  -0.15475  -0.07410  -0.04752   0.20875
   3     9     7         -0.12342   0.00380  -0.03077  -0.06411  -0.27588
   1    10     6          0.02539  -0.05758   0.10108  -0.06863  -0.04255
   2    10     6         -0.05900  -0.10849   0.13070   0.15909  -0.03204
   3    10     6          0.05341  -0.08489   0.06011   0.03608   0.01006
   1    11     6         -0.04280   0.08145  -0.02614  -0.03716  -0.11243
   2    11     6          0.23222   0.13727  -0.09307  -0.01614  -0.04661
   3    11     6          0.08658   0.01210  -0.04483   0.03859   0.04406
   1    12    17          0.02464  -0.05276   0.04055  -0.01634   0.00367
   2    12    17         -0.02117  -0.00318   0.00229   0.01213  -0.00171
   3    12    17         -0.00578  -0.02956   0.02824  -0.01445  -0.00293
   1    13     6         -0.09402   0.13372  -0.07662  -0.02179  -0.14077
   2    13     6         -0.00504   0.02228  -0.04518  -0.12459   0.04755
   3    13     6         -0.03479   0.08340  -0.12329   0.07249   0.13433
   1    14     6         -0.10364   0.17454  -0.17959   0.12222   0.02173
   2    14     6         -0.07685  -0.15061   0.15747   0.13567  -0.09443
   3    14     6         -0.06392   0.03659  -0.02390   0.06402  -0.01262
   1    15     6         -0.00563   0.08547  -0.10903   0.07587   0.13948
   2    15     6          0.14263   0.11222  -0.11449  -0.13390   0.05583
   3    15     6          0.03764   0.03018  -0.02833  -0.02177   0.07851
   1    16     6         -0.01849   0.05094  -0.06675   0.06513   0.09291
   2    16     6         -0.11894  -0.02284   0.03329   0.09305  -0.08301
   3    16     6          0.06721  -0.12479   0.11725  -0.03618  -0.00103
   1    17     1          0.25258   0.08938   0.14249  -0.24738   0.14347
   2    17     1          0.02119   0.14641   0.02412   0.08884  -0.23173
   3    17     1          0.02002  -0.01286  -0.05969  -0.10774  -0.15535
   1    18     1          0.33460  -0.19664  -0.19599   0.27295  -0.14726
   2    18     1         -0.01759   0.31968   0.29176  -0.03504  -0.00090
   3    18     1         -0.01564  -0.02361   0.03556   0.10284   0.18427
   1    19     1         -0.26351   0.25600   0.30251  -0.34888   0.29915
   2    19     1          0.07118  -0.13058  -0.12800   0.19658   0.03111
   3    19     1         -0.09061  -0.07620  -0.05912  -0.06971   0.01698
   1    20     1          0.21482  -0.03849   0.04372   0.02634   0.03406
   2    20     1         -0.12900   0.05081   0.07847   0.09796   0.14295
   3    20     1          0.10429   0.12252   0.11767   0.06750   0.01635
   1    21     1         -0.13164   0.15005  -0.05571  -0.07625  -0.19227
   2    21     1         -0.19715  -0.01250  -0.08654  -0.27304   0.20355
   3    21     1         -0.09311   0.08216  -0.11829   0.01211   0.14155
   1    22     1         -0.11998   0.16413  -0.16925   0.12913   0.01455
   2    22     1         -0.27548  -0.33573   0.31006   0.26398  -0.07374
   3    22     1         -0.14948   0.01397   0.04434   0.01599  -0.22350
   1    23     1          0.09042  -0.02979   0.00120  -0.01620   0.15776
   2    23     1          0.27057   0.25727  -0.30145  -0.40285   0.22734
   3    23     1          0.01354   0.14248  -0.14964  -0.03804   0.11714
   1    24     1         -0.02919   0.07401  -0.13033   0.11745   0.13672
   2    24     1         -0.26909  -0.03118  -0.02026  -0.01492  -0.04619
   3    24     1          0.03216  -0.11177   0.06773  -0.02547   0.03385
                          21        22        23        24        25
                           A         A         A         A         A
       Frequencies ---   684.5602  708.3243  714.9954  764.0237  772.2805
    Reduced masses ---     4.7988    6.7698    4.9098    3.1303    1.4348
   Force constants ---     1.3250    2.0012    1.4789    1.0766    0.5042
    IR Intensities ---     3.8708   12.9770   16.6628    1.7391   78.7893
 Coord Atom Element:
   1     1     6          0.06149  -0.00738  -0.10814   0.15848   0.02465
   2     1     6          0.05863  -0.06440   0.05861  -0.09260  -0.02327
   3     1     6         -0.04330   0.14598  -0.09495  -0.01732  -0.01758
   1     2     6         -0.04579  -0.10259   0.17197  -0.14435  -0.06315
   2     2     6          0.14199  -0.13794   0.02945   0.08788   0.04164
   3     2     6          0.03555   0.05840  -0.03341  -0.03831  -0.02920
   1     3    17         -0.01400   0.03215  -0.02076   0.00045   0.00033
   2     3    17         -0.02825   0.06354  -0.03676  -0.01318  -0.00885
   3     3    17          0.02458  -0.05457   0.03016   0.00771   0.00533
   1     4     6          0.09070  -0.01734  -0.04520   0.08500   0.05234
[...]
 00003390,0.00024803,-0.00015056,-0.00043189,0.00065247,0.00136531,0.00
 350611,-0.00601591,-0.00120908,-0.03678427,0.00915991,-0.02860308,-0.1
 7187855,0.02022283,-0.04928680,0.07069182,0.00483351,-0.03394478,-0.00
 160458,-0.00127916,0.00576973,-0.05999726,0.01031645,-0.02988557,-0.02
 462016,-0.01768195,0.08383322,-0.36582213,0.02711974,-0.02600100,0.725
 68922,0.00082395,-0.00130933,-0.00148360,0.00091124,-0.00047378,0.0002
 3976,-0.00005690,-0.00021027,0.00018969,-0.00015708,0.00001983,0.00012
 604,-0.00011221,-0.00001742,-0.00029051,0.00017664,0.00033641,0.000272
 46,0.00113936,-0.00087092,-0.00037397,-0.00008644,-0.00095209,-0.00100
 180,-0.00265707,0.00570066,0.00300745,0.03986845,-0.07820284,0.0529308
 5,-0.01002191,0.00468441,0.01562534,-0.00003194,0.00447581,0.00087298,
 0.01054840,-0.00689184,0.00569743,-0.00393280,0.01215307,-0.01204471,0
 .00995902,-0.06987630,0.01544841,-0.02965340,0.16983571,0.00017188,-0.
 00013113,0.00222131,0.00008743,-0.00088340,0.00118127,0.00044799,0.000
 67012,-0.00069654,-0.00020681,-0.00011398,-0.00018493,-0.00000904,0.00
 006298,-0.00036798,0.00027069,0.00035120,0.00050091,0.00009360,-0.0012
 2613,-0.00060221,0.00659115,-0.00042793,-0.00510006,-0.01763041,-0.002
 74713,0.00721120,-0.11212625,0.05852722,-0.27197554,0.02418640,0.01354
 338,-0.05145456,0.00083031,0.00129332,-0.00144222,-0.02925018,0.004722
 95,-0.01761389,0.02923736,-0.00828060,0.03445018,0.04626667,0.01153731
 ,-0.12765286,-0.04636850,-0.12681467,0.69858090,0.00387387,-0.00383491
 ,-0.00038763,0.00357744,-0.00143964,-0.01130445,-0.00230525,0.00146568
 ,-0.00036129,-0.04085065,-0.00605083,0.00682258,0.00418565,0.00130222,
 0.01179819,0.00493258,-0.00450049,0.00130293,-0.00091646,0.00008068,0.
 00007639,0.00041188,0.00017432,-0.00043789,-0.00000498,-0.00051891,-0.
 00008836,-0.00012011,0.00005206,-0.00001719,-0.00001552,0.00005207,0.0
 0004425,-0.00001299,-0.00000002,-0.00002311,0.00003476,0.00000044,-0.0
 0000191,-0.00002343,-0.00000228,-0.00003031,-0.00001537,-0.00002521,0.
 00002769,0.00002274,0.00001280,-0.00002088,0.03114400,-0.00445452,-0.0
 0288994,-0.00177280,0.00054638,0.00145189,-0.02508594,0.00149231,0.000
 39404,-0.00034554,-0.00676599,-0.05580012,-0.02348045,0.00001112,0.007
 15314,0.02263333,-0.00422317,-0.00182142,0.00233300,-0.00019868,-0.001
 24562,0.00019097,0.00055223,0.00059191,-0.00101210,-0.00013618,-0.0004
 8431,0.00012225,-0.00010210,0.00015529,-0.00018640,0.00008536,-0.00002
 821,0.00006308,-0.00000978,0.00001682,-0.00000365,-0.00001000,-0.00001
 603,-0.00000221,0.00004557,0.00000431,0.00000116,-0.00001712,-0.000001
 03,-0.00000124,0.00003078,-0.00001030,-0.00003758,0.01090646,0.0524990
 4,-0.00092631,-0.00218223,0.00063486,0.00238364,0.00312598,-0.00885201
 ,-0.00000569,0.00059053,0.00094350,0.00587430,-0.02527434,-0.34893257,
 -0.00130768,-0.00471338,-0.00991204,0.00152868,0.00260318,0.00019124,-
 0.00000182,0.00017345,0.00087906,0.00028581,0.00031772,-0.00021769,-0.
 00005797,-0.00027245,-0.00003680,-0.00007115,0.00009095,-0.00003990,0.
 00001888,0.00000952,0.00003843,0.00000419,-0.00000148,-0.00000139,0.00
 001136,-0.00000959,0.00000136,0.00001840,0.00000580,-0.00001343,-0.000
 01818,-0.00000125,0.00000614,0.00004043,-0.00000024,-0.00002751,-0.007
 46072,0.02573375,0.36532898,-0.00063268,0.00022142,0.00004158,0.005484
 39,-0.00346233,0.00176020,-0.00017915,-0.00064083,0.00013582,0.0002448
 4,-0.00878766,-0.00628996,-0.07813514,-0.09272550,-0.04327602,0.004306
 73,0.00090687,0.00154089,0.00588319,-0.00183294,0.00079991,-0.00057912
 ,0.00041176,0.00003279,-0.00002647,0.00015476,0.00015406,0.00007601,0.
 00005553,-0.00002225,0.00002779,-0.00004104,0.00001591,-0.00000294,0.0
 0001532,-0.00000097,-0.00000517,-0.00000631,-0.00000115,0.00000102,-0.
 00000665,-0.00000087,-0.00000400,-0.00000812,-0.00001382,0.00000656,-0
 .00002275,0.00000032,-0.00348496,0.00199467,-0.00022636,0.07028726,0.0
 0028065,0.00023980,0.00088762,-0.00338427,0.00002326,0.00260607,-0.000
 39388,-0.00081925,-0.00009212,-0.00686521,-0.01271605,-0.01225736,-0.0
 9266508,-0.25470416,-0.10496097,-0.00100467,0.00214804,0.00233460,-0.0
 0198756,0.00245104,-0.00049947,0.00040977,-0.00006315,-0.00008503,-0.0
 0001029,-0.00011102,-0.00008248,-0.00007359,-0.00002266,0.00004333,-0.
 00001179,0.00002646,0.00000629,0.00000947,-0.00001325,-0.00000893,0.00
 000256,0.00000333,-0.00000647,0.00001230,0.00000837,0.00000120,-0.0000
 0704,0.00001357,-0.00000830,0.00000510,-0.00000269,0.00001667,0.001977
 75,-0.00006406,0.00004508,0.10196968,0.26392639,0.00040473,0.00080531,
 -0.00097559,0.00159714,0.00231217,-0.00098666,0.00038759,0.00086758,0.
 00000201,0.00711591,0.01639918,0.01098022,-0.04341850,-0.10504126,-0.1
 1390079,-0.01138492,-0.02629941,-0.00631117,0.00082203,-0.00000704,-0.
 00555140,-0.00001034,-0.00002520,0.00016164,-0.00002818,0.00005447,0.0
 0001298,-0.00001438,0.00001809,0.00001120,-0.00003320,0.00001740,-0.00
 004027,0.00004019,-0.00004235,0.00001107,-0.00001526,-0.00000232,0.000
 00787,0.00000764,0.00000338,0.00001047,0.00001058,-0.00000203,0.000007
 56,-0.00000116,-0.00000381,-0.00003421,-0.00041365,-0.00020316,0.00062
 174,0.04561931,0.11197437,0.11538731,0.00521327,-0.00400270,-0.0010697
 9,-0.00052571,0.00030018,-0.00050959,-0.00056792,0.00032899,-0.0000061
 9,0.00599353,-0.00195429,0.00033700,0.00386853,-0.00062707,-0.00128960
 ,-0.08353825,-0.08735122,0.06303959,0.00056935,-0.00682944,0.00706688,
 -0.00001404,-0.00018771,0.00075300,0.00002403,-0.00004790,-0.00030613,
 -0.00007849,0.00008848,0.00007755,0.00008428,-0.00002856,0.00010301,-0
 .00003113,0.00002933,-0.00006165,-0.00001081,-0.00001451,-0.00001636,0
 .00000238,-0.00000506,-0.00000795,-0.00001881,-0.00002225,-0.00000034,
 0.00005371,0.00000806,-0.00003019,0.00005142,-0.00004316,-0.00005982,-
 0.00335504,0.00180093,-0.00018273,0.07570940,-0.00386909,-0.00199938,-
 0.00283910,0.00037544,-0.00003989,-0.00096411,0.00027822,-0.00011508,0
 .00008837,-0.00210301,0.00225728,-0.00129287,0.00140197,0.00637635,-0.
 00469493,-0.08739711,-0.21060151,0.11997982,-0.00888924,-0.01236781,0.
 01632906,-0.00016048,-0.00021624,0.00066644,-0.00007900,-0.00001315,-0
 .00025359,-0.00016406,-0.00007435,0.00028345,-0.00000104,0.00001363,0.
 00011172,-0.00001395,0.00004030,-0.00006857,0.00001423,0.00002874,-0.0
 0003047,0.00005496,0.00001773,0.00000867,-0.00000986,-0.00000443,0.000
 03581,0.00013255,-0.00004210,-0.00006505,0.00006623,0.00019300,-0.0002
 0783,0.00178855,-0.00033425,0.00034426,0.09652965,0.21690977,-0.001028
 61,-0.00329882,-0.00020242,-0.00046360,-0.00105279,-0.00073014,0.00001
 130,0.00015647,0.00010187,0.00010746,-0.00158986,-0.00524034,0.0119134
 8,0.02376039,-0.01014874,0.06304540,0.12014401,-0.15294486,-0.00593717
 ,-0.01178368,0.01096937,-0.00000223,-0.00019818,0.00054413,-0.00006727
 ,0.00000519,-0.00026794,-0.00007078,-0.00007689,0.00018782,0.00002803,
 -0.00000665,0.00006768,-0.00002766,0.00003670,-0.00004391,-0.00000975,
 0.00000938,-0.00000957,0.00000279,-0.00000486,0.00000643,0.00000183,-0
 .00000751,0.00001057,0.00006125,0.00001555,-0.00003367,0.00051855,0.00
 105558,-0.00054410,-0.00034522,-0.00002127,0.00093384,-0.06760191,-0.1
 2756369,0.15679377,0.00327466,-0.00143680,0.01061361,0.00443863,-0.003
 89924,0.00115974,-0.00003330,-0.00008933,0.00078348,-0.00093580,-0.000
 08637,-0.00007436,0.00495932,-0.00423939,-0.00049778,0.00481409,-0.000
 53308,-0.01096613,-0.04241921,-0.00720170,0.00505748,-0.00377931,0.003
 66712,0.00110447,0.00086576,0.00022167,0.00008587,0.00063491,0.0005069
 1,-0.00002680,-0.00042312,0.00039081,-0.00016397,-0.00013522,-0.000212
 42,0.00009554,0.00007453,0.00004052,0.00008858,-0.00003217,-0.00004703
 ,-0.00012715,-0.00010262,-0.00000002,0.00004445,0.00009429,-0.00029694
 ,-0.00005616,-0.00052149,0.00025536,-0.00004161,0.00009351,-0.00005034
 ,-0.00051894,-0.00344067,0.00202000,-0.00014641,0.03256666,-0.00084783
 ,0.00632382,0.02298072,-0.00368945,-0.00145022,0.00125508,-0.00021673,
 -0.00048056,0.00129127,-0.00014421,-0.00115077,0.00032749,-0.00428034,
 -0.00283397,-0.00186183,0.00126869,0.00299466,-0.02563115,-0.00767680,
 -0.05813473,-0.03101796,0.00194433,0.00044239,0.00101714,-0.00011193,-
 0.00083711,-0.00055138,0.00023426,-0.00079727,0.00000398,0.00080879,-0
 .00076356,0.00041781,-0.00021639,-0.00009589,-0.00028627,-0.00007413,-
 0.00000462,-0.00015933,-0.00002212,0.00002941,0.00001202,-0.00006721,-
 0.00003265,-0.00009958,-0.00000938,0.00020102,0.00011674,0.00025663,-0
 .00007713,-0.00001279,-0.00001600,0.00001983,-0.00116062,0.00200113,-0
 .00000874,0.00042259,0.01091490,0.05658999,0.00001825,-0.00371297,-0.0
 1143817,0.00128970,0.00204107,0.00003182,0.00004158,0.00003965,-0.0005
 1019,0.00005827,0.00030440,0.00086308,-0.00065414,-0.00218974,0.000978
 34,0.00171884,0.00210841,-0.00622526,0.00523067,-0.03046810,-0.3436859
 1,-0.00107401,-0.00195121,-0.00046310,0.00003473,0.00107493,0.00074636
 ,-0.00025316,-0.00002596,-0.00018835,0.00041231,-0.00051864,0.00033289
 ,0.00005194,-0.00002537,-0.00009924,-0.00025663,0.00009665,-0.00014560
 ,0.00003257,-0.00002190,0.00007357,0.00001721,0.00000616,-0.00009267,-
 0.00003395,-0.00002315,-0.00013960,-0.00003726,0.00002369,-0.00005493,
 0.00006321,0.00011332,-0.00034838,-0.00023337,0.00016403,0.00056048,-0
 .00647900,0.03296940,0.35981003,0.00000941,-0.00027267,0.00013032,0.00
 006773,0.00007506,-0.00004541,-0.00000008,-0.00001928,0.00000990,-0.00
 000964,0.00001784,0.00000231,0.00001129,0.00002127,0.00003097,-0.00001
 586,-0.00001292,-0.00002607,-0.00000246,0.00003114,0.00006506,-0.00061
 979,0.00029161,-0.00026924,0.00040941,-0.00003629,0.00142281,-0.005453
 49,0.00040698,-0.00095733,-0.00918979,-0.00549345,0.02680296,0.0010865
 5,-0.00046321,0.00036697,-0.12247891,-0.02327329,0.11952342,0.01196538
 ,0.00317854,-0.01521533,-0.00108279,0.00125871,-0.00302280,-0.00072027
 ,0.00017881,-0.00092404,0.00000092,0.00000911,0.00000383,0.00000184,-0
 .00000028,-0.00000182,0.00000607,0.00001457,0.00000704,-0.00001110,0.0
 0002066,0.00003512,0.12497353,-0.00000838,-0.00001753,-0.00009726,0.00
 002953,-0.00007347,-0.00001795,-0.00001648,-0.00000222,0.00001094,0.00
 002057,0.00002548,0.00001678,-0.00003047,-0.00003685,0.00000788,-0.000
 00909,0.00001059,-0.00002942,0.00001599,0.00000017,0.00001055,-0.00021
 583,0.00013134,0.00009868,0.00001717,0.00016920,-0.00010620,0.00090450
 ,0.00558627,0.00103912,0.00133471,0.00375956,-0.00102907,-0.00018289,-
 0.00272475,-0.00094579,-0.02316192,-0.04846774,0.05003420,-0.00403111,
 0.00338259,0.00482252,0.00106861,0.00640177,0.00244580,0.00043800,-0.0
 0089195,-0.00022706,-0.00000208,-0.00000235,-0.00000122,0.00000357,-0.
 00000210,-0.00000069,0.00000704,-0.00001989,-0.00000303,0.00001997,0.0
 0002071,0.00001088,0.02440037,0.03741865,-0.00002890,-0.00000192,0.000
 00424,0.00000400,-0.00000626,0.00000084,-0.00000459,-0.00001397,0.0000
 0475,0.00000370,-0.00000147,0.00000430,-0.00001070,-0.00000969,-0.0000
 0702,-0.00000309,0.00001110,-0.00000526,-0.00000272,-0.00001533,-0.000
 01271,-0.00005695,0.00006911,-0.00003576,-0.00012718,0.00002205,0.0002
 0729,-0.00018641,0.00104376,0.00149008,-0.00381604,0.00056831,0.001612
 74,-0.00059310,-0.00083252,0.00076835,0.12164674,0.04975335,-0.2748456
 2,0.01423660,0.00341891,-0.01391227,-0.00343092,0.00248680,-0.00199772
 ,-0.00079777,-0.00028721,0.00032958,-0.00000091,-0.00000065,0.00000018
 ,0.00000219,-0.00000257,-0.00000243,0.00000578,-0.00001677,-0.00000024
 ,0.00001917,0.00002007,0.00001198,-0.12749505,-0.05496197,0.28666839,0
 .00000857,-0.00002649,-0.00003758,0.00000255,-0.00001575,0.00000173,-0
 .00000859,0.00002851,0.00000684,-0.00000433,-0.00000514,-0.00000067,0.
 00001206,0.00000917,0.00000268,0.00000019,-0.00000829,0.00000868,-0.00
 000824,0.00001226,-0.00000039,-0.00001320,-0.00002319,-0.00001671,0.00
 012969,0.00001022,0.00004999,0.00068777,-0.00015301,-0.00008817,0.0007
 3300,0.00102126,-0.00214131,-0.00056058,0.00011637,-0.00021431,-0.0100
 9007,-0.00003673,0.00426949,-0.34761100,0.01893319,0.01148981,-0.00874
 264,0.00174580,-0.00356204,0.00048947,-0.00025148,0.00287842,-0.000001
 40,-0.00000040,0.00000171,-0.00000192,0.00000666,0.00000441,-0.0000025
 4,0.00000875,-0.00000389,0.00000430,-0.00002246,-0.00000561,0.00062773
 ,-0.00036088,-0.00003408,0.36424737,0.00007403,0.00003625,0.00008814,-
 0.00002582,0.00004046,-0.00000198,0.00001143,-0.00000280,-0.00000295,-
 0.00000793,-0.00000240,-0.00000952,-0.00000858,0.00000191,-0.00000493,
 -0.00001232,0.00000925,0.00000209,-0.00002039,0.00000722,0.00001160,0.
 00022165,-0.00008409,-0.00011290,0.00004668,-0.00072537,-0.00029967,-0
 .00032516,-0.00074680,0.00041328,0.00086637,0.00651225,0.00244298,0.00
 024275,0.00009571,-0.00003990,0.00709471,0.00350950,-0.00045856,0.0188
 8829,-0.04057359,0.00388162,-0.00551698,0.00431585,0.00031197,0.000087
 94,0.00626864,0.00221564,0.00000468,-0.00000053,-0.00000085,0.00000584
 ,-0.00000585,-0.00000440,0.00000917,-0.00001211,0.00000346,0.00001159,
 0.00001143,-0.00000075,-0.00040179,-0.00408828,-0.00123753,-0.02075413
 ,0.02924348,0.00000936,0.00001911,0.00002015,0.00001242,0.00005321,-0.
 00002797,0.00001207,-0.00005052,0.00000648,0.00000125,0.00000718,0.000
 01264,-0.00000826,-0.00000283,0.00000566,-0.00001004,-0.00001431,0.000
 00803,0.00001089,0.00001562,-0.00003038,0.00001109,0.00002187,-0.00002
 699,0.00002554,-0.00024186,0.00011668,-0.00023578,0.00011421,-0.001310
 17,-0.00183002,0.00248306,-0.00271193,-0.00118216,0.00026025,-0.000526
 47,-0.02654695,0.00152974,0.00509263,0.01162096,0.00398715,-0.05854018
 ,0.02696932,-0.00205015,0.00454784,0.00249619,0.00233831,-0.00397646,0
 .00000327,0.00000153,-0.00000081,0.00000185,-0.00000562,0.00000160,0.0
 0000027,-0.00000459,0.00000086,0.00000254,-0.00001745,-0.00000852,0.00
 027334,-0.00119380,0.00051481,-0.01236223,-0.00608325,0.05611374,0.000
 01506,-0.00004620,-0.00039150,0.00008381,0.00007782,-0.00012336,-0.000
 00794,-0.00008562,0.00008664,0.00000356,-0.00001714,0.00003722,0.00003
 007,0.00003328,0.00001635,-0.00000513,0.00000442,-0.00003916,0.0000122
 4,0.00011898,0.00012781,-0.00024428,-0.00015475,0.00034937,0.00012343,
 0.00033012,-0.00108070,-0.00551304,0.00074764,0.00080899,-0.00086402,-
 0.00021244,0.00101024,0.00013195,-0.00004022,-0.00007583,-0.00064622,-
 0.00022851,0.00314416,0.01158657,-0.00382898,0.01419840,-0.13484657,0.
 03508142,-0.12232866,-0.00964912,0.00697499,-0.02627382,-0.00000898,0.
 00001896,0.00001351,-0.00000312,0.00000519,0.00000357,0.00000766,0.000
 01591,0.00000821,-0.00000044,-0.00002062,0.00001224,0.00041198,-0.0001
 7807,0.00062364,0.00058748,-0.00020044,-0.00044774,0.13781897,0.000059
 94,-0.00005479,0.00006643,0.00002129,0.00008526,-0.00001043,-0.0000114
 2,-0.00002936,0.00001252,-0.00002769,-0.00000130,-0.00001468,-0.000027
 13,-0.00001602,-0.00000648,-0.00002505,-0.00000221,0.00000684,0.000021
 60,-0.00002885,0.00000004,-0.00007594,0.00001275,0.00016349,0.00011890
 ,0.00019219,-0.00031740,0.00042920,0.00661585,0.00128531,-0.00032711,-
 0.00061608,-0.00024743,0.00002832,-0.00069183,-0.00014268,-0.00016799,
 0.00648613,0.00200384,0.00319065,0.00304605,0.00339150,0.03518237,-0.0
 5533111,0.05947142,0.00009343,0.00386037,0.00168799,0.00001775,-0.0000
 0632,-0.00000872,0.00000986,-0.00001348,-0.00000224,0.00000123,-0.0000
 0310,0.00000364,0.00000159,0.00000715,0.00000249,0.00011828,0.00002644
 ,0.00013755,-0.00030941,-0.00393483,-0.00109009,-0.03801790,0.04450887
 ,0.00003896,-0.00007017,0.00007448,0.00000624,0.00001214,-0.00000560,-
 0.00000631,0.00001137,0.00000382,-0.00000531,0.00000867,0.00000616,0.0
 0000708,0.00000428,0.00001236,-0.00000846,-0.00000765,-0.00000483,-0.0
 0001567,0.00001120,-0.00000623,0.00001889,0.00006662,-0.00002780,0.000
 01409,-0.00005901,-0.00000133,0.00112764,0.00111959,0.00190464,0.00103
 539,-0.00029393,0.00018234,-0.00012815,-0.00014859,-0.00002001,0.00354
 496,0.00200176,-0.00283056,-0.01637257,0.00549604,-0.01454155,-0.12244
 723,0.05951423,-0.25722060,0.00391859,-0.00045207,0.00496425,0.0000000
 4,-0.00000095,0.00000131,-0.00000052,0.00000427,0.00000286,-0.00000131
 ,0.00000250,-0.00000417,0.00000931,-0.00000904,0.00000159,-0.00073136,
 0.00024684,-0.00073829,-0.00006802,-0.00111613,0.00059326,0.13026891,-
 0.06528960,0.26740967,-0.00017097,0.00043042,0.00012076,-0.00010195,0.
 00095509,-0.00023099,-0.00050468,-0.00007181,0.00023417,-0.00007267,-0
 .00016193,0.00008894,-0.00001974,-0.00002040,0.00000995,-0.00010055,-0
 .00008833,0.00003484,0.00004623,0.00001488,-0.00000051,-0.00003164,0.0
 0026748,0.00017449,0.00113543,-0.00069209,-0.00089768,0.01023766,0.003
 32207,-0.01500499,-0.00118368,0.00095023,-0.00202201,0.00007985,0.0003
 5944,-0.00118117,-0.00063080,0.00020481,-0.00092094,-0.00525128,0.0010
 5202,-0.00071818,-0.00754654,-0.00529477,0.02675120,-0.12883097,-0.023
 32079,0.12183407,0.00004634,0.00001277,-0.00000743,-0.00000345,-0.0000
 2607,0.00000999,-0.00000020,-0.00001416,-0.00000083,0.00001379,-0.0000
 3380,0.00001048,0.00001232,-0.00006282,0.00004659,-0.00048566,-0.00029
 159,0.00117282,0.00097607,-0.00030476,-0.00020520,0.13238707,0.0007091
 6,-0.00012314,0.00035792,0.00007121,-0.00085311,0.00010231,0.00006210,
 0.00009266,-0.00026792,0.00010865,0.00001870,-0.00007822,-0.00008513,0
 .00001118,0.00005458,0.00002850,-0.00002196,-0.00006233,-0.00032503,0.
 00020385,0.00007512,0.00127315,0.00027634,0.00005861,0.00007629,-0.004
 69030,-0.00147397,-0.00584153,0.00387358,0.00579413,0.00105399,0.00582
 318,0.00179309,0.00012251,-0.00007351,0.00025488,0.00021768,-0.0008820
 1,-0.00009799,0.00098999,0.00647173,0.00127048,0.00174010,0.00458608,-
 0.00198251,-0.02273206,-0.04778410,0.04620916,0.00000459,-0.00001205,-
 0.00000959,0.00001229,0.00001190,-0.00000168,0.00000966,0.00001525,-0.
 00000575,0.00004224,0.00002681,-0.00001729,-0.00004978,-0.00060564,-0.
 00014316,0.00007516,0.00012471,-0.00007679,-0.00037784,-0.00411180,-0.
 00105238,0.02281410,0.03762164,0.00029800,0.00050040,0.00010038,0.0000
 8935,-0.00060931,0.00018297,0.00004787,-0.00009560,-0.00027101,0.00008
 952,0.00024656,-0.00002903,-0.00005858,-0.00006234,0.00007425,-0.00000
 783,-0.00002856,-0.00009143,0.00002719,0.00010191,-0.00009387,-0.00102
 517,0.00064271,0.00054878,0.00309250,-0.00170267,-0.00026730,0.0120928
 0,0.00345321,-0.01597459,-0.00277530,0.00209790,-0.00159906,0.00025543
 ,0.00027510,-0.00102958,-0.00095502,-0.00024144,0.00028721,-0.00035139
 ,0.00124206,0.00188146,-0.00292755,0.00016814,0.00452937,0.12149069,0.
 04601147,-0.26813737,-0.00000833,-0.00002566,-0.00001363,0.00000911,-0
 .00000223,-0.00000147,-0.00000616,-0.00001256,-0.00000670,0.00003406,-
 0.00002691,-0.00001022,0.00001439,-0.00013073,-0.00006019,-0.00017873,
 0.00000253,0.00012549,0.00005152,-0.00110330,0.00024426,-0.12929837,-0
 .05070070,0.27961127\\-0.00000476,-0.00000182,0.00000254,-0.00000414,-
 0.00000718,-0.00000632,0.00000123,0.00000701,-0.00000464,-0.00000770,-
 0.00000196,0.00000869,0.00000717,0.00000411,-0.00001442,-0.00000598,-0
 .00000215,0.00001120,0.00000524,-0.00000243,-0.00000931,0.00001308,-0.
 00001375,-0.00001341,-0.00001315,0.00001246,0.00001387,-0.00000944,-0.
 00000587,-0.00001121,0.00000716,0.00000126,-0.00000262,-0.00000673,0.0
 0000460,-0.00000982,-0.00001181,-0.00000146,-0.00003499,0.00001302,0.0
 0000258,0.00003430,-0.00000374,-0.00000409,-0.00001357,0.00001328,0.00
 000072,0.00001779,-0.00000095,0.00000059,-0.00000095,-0.00000073,0.000
 00245,0.00000024,0.00000641,0.00000802,-0.00000333,-0.00000205,0.00000
 437,0.00001686,-0.00000458,0.00000189,0.00000660,-0.00000245,-0.000002
 20,0.00000316,0.00000734,-0.00000415,0.00001320,0.00000430,-0.00000297
 ,-0.00000389\\\@
 The archive entry for this job was punched.


 THE BEST WAY TO CONVINCE A FOOL THAT HE IS WRONG 
 IS TO LET HIM HAVE HIS OWN WAY.

                                         JOSH BILLINGS
 Job cpu time:       0 days  0 hours 23 minutes 55.6 seconds.
 Elapsed time:       0 days  0 hours  2 minutes 38.0 seconds.
 File lengths (MBytes):  RWF=    245 Int=      0 D2E=      0 Chk=      6 Scr=      1
 Normal termination of Gaussian 16 at Fri Mar  6 17:34:20 2026.
