 Entering Gaussian System, Link 0=g16
 Initial command:
 /prod/precompiled/gaussian/16c2/g16/l1.exe "/scratch/ucsscms/svela/2076946/Gau-1225967.inp" -scrdir="/scratch/ucsscms/svela/2076946/"
 Entering Link 1 = /prod/precompiled/gaussian/16c2/g16/l1.exe PID=   1225968.
  
 Copyright (c) 1988-2021, Gaussian, Inc.  All Rights Reserved.
  
 This is part of the Gaussian(R) 16 program.  It is based on
 the Gaussian(R) 09 system (copyright 2009, Gaussian, Inc.),
 the Gaussian(R) 03 system (copyright 2003, Gaussian, Inc.),
 the Gaussian(R) 98 system (copyright 1998, Gaussian, Inc.),
 the Gaussian(R) 94 system (copyright 1995, Gaussian, Inc.),
 the Gaussian 92(TM) system (copyright 1992, Gaussian, Inc.),
 the Gaussian 90(TM) system (copyright 1990, Gaussian, Inc.),
 the Gaussian 88(TM) system (copyright 1988, Gaussian, Inc.),
 the Gaussian 86(TM) system (copyright 1986, Carnegie Mellon
 University), and the Gaussian 82(TM) system (copyright 1983,
 Carnegie Mellon University). Gaussian is a federally registered
 trademark of Gaussian, Inc.
  
 This software contains proprietary and confidential information,
 including trade secrets, belonging to Gaussian, Inc.
  
 This software is provided under written license and may be
 used, copied, transmitted, or stored only in accord with that
 written license.
  
 The following legend is applicable only to US Government
 contracts under FAR:
  
                    RESTRICTED RIGHTS LEGEND
  
 Use, reproduction and disclosure by the US Government is
 subject to restrictions as set forth in subparagraphs (a)
 and (c) of the Commercial Computer Software - Restricted
 Rights clause in FAR 52.227-19.
  
 Gaussian, Inc.
 340 Quinnipiac St., Bldg. 40, Wallingford CT 06492
  
  
 ---------------------------------------------------------------
 Warning -- This program may not be used in any manner that
 competes with the business of Gaussian, Inc. or will provide
 assistance to any competitor of Gaussian, Inc.  The licensee
 of this program is prohibited from giving any competitor of
 Gaussian, Inc. access to this program.  By using this program,
 the user acknowledges that Gaussian, Inc. is engaged in the
 business of creating and licensing software in the field of
 computational chemistry and represents and warrants to the
 licensee that it is not a competitor of Gaussian, Inc. and that
 it will not use this program in any manner prohibited above.
 ---------------------------------------------------------------
  

 Cite this work as:
 Gaussian 16, Revision C.02,
 M. J. Frisch, G. W. Trucks, H. B. Schlegel, G. E. Scuseria, 
 M. A. Robb, J. R. Cheeseman, G. Scalmani, V. Barone, 
 G. A. Petersson, H. Nakatsuji, X. Li, M. Caricato, A. V. Marenich, 
 J. Bloino, B. G. Janesko, R. Gomperts, B. Mennucci, H. P. Hratchian, 
 J. V. Ortiz, A. F. Izmaylov, J. L. Sonnenberg, D. Williams-Young, 
 F. Ding, F. Lipparini, F. Egidi, J. Goings, B. Peng, A. Petrone, 
 T. Henderson, D. Ranasinghe, V. G. Zakrzewski, J. Gao, N. Rega, 
 G. Zheng, W. Liang, M. Hada, M. Ehara, K. Toyota, R. Fukuda, 
 J. Hasegawa, M. Ishida, T. Nakajima, Y. Honda, O. Kitao, H. Nakai, 
 T. Vreven, K. Throssell, J. A. Montgomery, Jr., J. E. Peralta, 
 F. Ogliaro, M. J. Bearpark, J. J. Heyd, E. N. Brothers, K. N. Kudin, 
 V. N. Staroverov, T. A. Keith, R. Kobayashi, J. Normand, 
 K. Raghavachari, A. P. Rendell, J. C. Burant, S. S. Iyengar, 
 J. Tomasi, M. Cossi, J. M. Millam, M. Klene, C. Adamo, R. Cammi, 
 J. W. Ochterski, R. L. Martin, K. Morokuma, O. Farkas, 
 J. B. Foresman, and D. J. Fox, Gaussian, Inc., Wallingford CT, 2019.
 
 ******************************************
 Gaussian 16:  ES64L-G16RevC.02  7-Dec-2021
                 6-Mar-2026 
 ******************************************
 %nprocs=12
 Will use up to   12 processors via shared memory.
 %mem=18gb
 %chk=test_tsinv_l_a_freq_r1.chk
 ----------------------------------------------------------------------
 #p nosymm scf=(maxconventionalcycles=200,xqc) wB97XD def2SVP freq(hpmo
 des)
 ----------------------------------------------------------------------
 1/10=4,30=1,38=1/1,3;
 2/12=2,15=1,17=6,18=5,40=1/2;
 3/5=43,7=101,11=2,25=1,30=1,71=2,74=-58,140=1/1,2,3;
 4//1;
 5/5=2,8=3,13=1,38=5,85=200,98=1/2,8;
 8/6=4,10=90,11=11/1;
 11/6=1,8=1,9=11,15=111,16=1,31=1/1,2,10;
 10/6=1,31=1/2;
 6/7=2,8=2,9=2,10=2,28=1/1;
 7/8=11,10=1,25=1,30=1/1,2,3,16;
 1/10=4,30=1/3;
 99//99;
 Leave Link    1 at Fri Mar  6 17:31:51 2026, MaxMem=  2415919104 cpu:               0.1 elap:               0.1
 (Enter /prod/precompiled/gaussian/16c2/g16/l101.exe)
 ----------
 Title Card
 ----------
 Symbolic Z-matrix:
 Charge =  0 Multiplicity = 1
 C                     1.64916  -0.62707  -0.5741 
 C                     1.80964   0.56519   0.17818 
 Cl                    0.39244   1.52597   0.50911 
 C                     3.05954   0.95193   0.63896 
 C                     4.18212   0.1606    0.39843 
 C                     4.031    -1.02654  -0.31932 
 C                     2.79544  -1.42395  -0.81084 
 N                     0.45149  -0.97856  -1.01974 
 N                    -0.66598  -1.23571  -1.41489 
 C                    -1.60765  -1.83284  -0.50286 
 C                    -1.32924  -2.62123   0.62541 
 Cl                    0.29064  -3.0547    1.07934 
 C                    -2.37831  -3.12607   1.39322 
 C                    -3.69832  -2.8437    1.05113 
 C                    -3.98488  -2.075    -0.07661 
 C                    -2.93975  -1.5927   -0.85357 
 H                     3.13842   1.88225   1.20419 
 H                     5.1595    0.46881   0.77105 
 H                     4.89832  -1.66187  -0.51213 
 H                     2.68284  -2.34871  -1.37684 
 H                    -2.14554  -3.7448    2.26102 
 H                    -4.50731  -3.24066   1.66749 
 H                    -5.01855  -1.8619   -0.35352 
 H                    -3.11713  -1.00154  -1.75414 
 
 ITRead=  0  0  0  0  0  0  0  0  0  0  0  0  0  0  0  0  0  0  0  0
 ITRead=  0  0  0  0
 MicOpt= -1 -1 -1 -1 -1 -1 -1 -1 -1 -1 -1 -1 -1 -1 -1 -1 -1 -1 -1 -1
 MicOpt= -1 -1 -1 -1
 NAtoms=     24 NQM=       24 NQMF=       0 NMMI=      0 NMMIF=      0
                NMic=       0 NMicF=      0.
                    Isotopes and Nuclear Properties:
 (Nuclear quadrupole moments (NQMom) in fm**2, nuclear magnetic moments (NMagM)
  in nuclear magnetons)

  Atom         1           2           3           4           5           6           7           8           9          10
 IAtWgt=          12          12          35          12          12          12          12          14          14          12
 AtmWgt=  12.0000000  12.0000000  34.9688527  12.0000000  12.0000000  12.0000000  12.0000000  14.0030740  14.0030740  12.0000000
 NucSpn=           0           0           3           0           0           0           0           2           2           0
 AtZEff=  -0.0000000  -0.0000000  -0.0000000  -0.0000000  -0.0000000  -0.0000000  -0.0000000  -0.0000000  -0.0000000  -0.0000000
 NQMom=    0.0000000   0.0000000  -8.1650000   0.0000000   0.0000000   0.0000000   0.0000000   2.0440000   2.0440000   0.0000000
 NMagM=    0.0000000   0.0000000   0.8218740   0.0000000   0.0000000   0.0000000   0.0000000   0.4037610   0.4037610   0.0000000
 AtZNuc=   6.0000000   6.0000000  17.0000000   6.0000000   6.0000000   6.0000000   6.0000000   7.0000000   7.0000000   6.0000000

  Atom        11          12          13          14          15          16          17          18          19          20
 IAtWgt=          12          35          12          12          12          12           1           1           1           1
 AtmWgt=  12.0000000  34.9688527  12.0000000  12.0000000  12.0000000  12.0000000   1.0078250   1.0078250   1.0078250   1.0078250
 NucSpn=           0           3           0           0           0           0           1           1           1           1
 AtZEff=  -0.0000000  -0.0000000  -0.0000000  -0.0000000  -0.0000000  -0.0000000  -0.0000000  -0.0000000  -0.0000000  -0.0000000
 NQMom=    0.0000000  -8.1650000   0.0000000   0.0000000   0.0000000   0.0000000   0.0000000   0.0000000   0.0000000   0.0000000
 NMagM=    0.0000000   0.8218740   0.0000000   0.0000000   0.0000000   0.0000000   2.7928460   2.7928460   2.7928460   2.7928460
 AtZNuc=   6.0000000  17.0000000   6.0000000   6.0000000   6.0000000   6.0000000   1.0000000   1.0000000   1.0000000   1.0000000

  Atom        21          22          23          24
 IAtWgt=           1           1           1           1
 AtmWgt=   1.0078250   1.0078250   1.0078250   1.0078250
 NucSpn=           1           1           1           1
 AtZEff=  -0.0000000  -0.0000000  -0.0000000  -0.0000000
 NQMom=    0.0000000   0.0000000   0.0000000   0.0000000
 NMagM=    2.7928460   2.7928460   2.7928460   2.7928460
 AtZNuc=   1.0000000   1.0000000   1.0000000   1.0000000
 Leave Link  101 at Fri Mar  6 17:31:51 2026, MaxMem=  2415919104 cpu:               0.1 elap:               0.1
 (Enter /prod/precompiled/gaussian/16c2/g16/l103.exe)

 GradGradGradGradGradGradGradGradGradGradGradGradGradGradGradGradGradGrad
 Berny optimization.
 Initialization pass.
 Trust Radius=3.00D-01 FncErr=1.00D-07 GrdErr=1.00D-07 EigMax=2.50D+02 EigMin=1.00D-04
 Number of steps in this run=      2 maximum allowed number of steps=      2.
 GradGradGradGradGradGradGradGradGradGradGradGradGradGradGradGradGradGrad

 Leave Link  103 at Fri Mar  6 17:31:51 2026, MaxMem=  2415919104 cpu:               0.1 elap:               0.1
 (Enter /prod/precompiled/gaussian/16c2/g16/l202.exe)
                          Input orientation:                          
 ---------------------------------------------------------------------
 Center     Atomic      Atomic             Coordinates (Angstroms)
 Number     Number       Type             X           Y           Z
 ---------------------------------------------------------------------
      1          6           0        1.649160   -0.627068   -0.574104
      2          6           0        1.809643    0.565189    0.178184
      3         17           0        0.392439    1.525971    0.509110
      4          6           0        3.059536    0.951926    0.638964
      5          6           0        4.182115    0.160596    0.398433
      6          6           0        4.031001   -1.026538   -0.319318
      7          6           0        2.795436   -1.423952   -0.810843
      8          7           0        0.451485   -0.978557   -1.019740
      9          7           0       -0.665979   -1.235708   -1.414891
     10          6           0       -1.607648   -1.832838   -0.502864
     11          6           0       -1.329240   -2.621226    0.625410
     12         17           0        0.290636   -3.054703    1.079336
     13          6           0       -2.378305   -3.126065    1.393222
     14          6           0       -3.698319   -2.843703    1.051131
     15          6           0       -3.984875   -2.075001   -0.076609
     16          6           0       -2.939754   -1.592698   -0.853565
     17          1           0        3.138421    1.882247    1.204191
     18          1           0        5.159504    0.468805    0.771049
     19          1           0        4.898317   -1.661868   -0.512134
     20          1           0        2.682843   -2.348705   -1.376835
     21          1           0       -2.145538   -3.744803    2.261023
     22          1           0       -4.507309   -3.240655    1.667490
     23          1           0       -5.018549   -1.861896   -0.353523
     24          1           0       -3.117133   -1.001544   -1.754144
 ---------------------------------------------------------------------
                    Distance matrix (angstroms):
                    1          2          3          4          5
     1  C    0.000000
     2  C    1.418862   0.000000
     3  Cl   2.718139   1.743870   0.000000
     4  C    2.440065   1.387125   2.731263   0.000000
     5  C    2.825262   2.416781   4.029658   1.394361   0.000000
     6  C    2.428510   2.777685   4.521142   2.403408   1.395453
     7  C    1.415987   2.430359   4.027247   2.795798   2.428172
     8  N    1.325353   2.379657   2.934881   3.644173   4.150480
     9  N    2.537170   3.451061   3.528300   4.783673   5.361140
    10  C    3.473580   4.229922   4.038073   5.553493   6.189303
    11  C    3.779731   4.495090   4.491876   5.659413   6.177790
    12  Cl   3.236180   4.027788   4.617152   4.890175   5.093661
    13  C    5.131845   5.713194   5.486357   6.838789   7.404786
    14  C    6.012520   6.536071   6.010170   7.761784   8.458905
    15  C    5.838353   6.372751   5.698328   7.700523   8.480760
    16  C    4.697730   5.317683   4.763034   6.685375   7.440602
    17  H    3.417147   2.133772   2.854906   1.091422   2.168554
    18  H    3.915723   3.403285   4.889900   2.158870   1.090470
    19  H    3.410524   3.869913   5.613216   3.396772   2.159503
    20  H    2.162617   3.416334   4.880149   3.885809   3.419939
    21  H    5.670798   6.209485   6.106684   7.196050   7.665545
    22  H    7.053913   7.523720   6.933260   8.711644   9.417277
    23  H    6.784674   7.266200   6.442094   8.611509   9.450298
    24  H    4.924457   5.519209   4.881367   6.906102   7.698258
                    6          7          8          9         10
     6  C    0.000000
     7  C    1.387860   0.000000
     8  N    3.647715   2.395020   0.000000
     9  N    4.827593   3.518764   1.212847   0.000000
    10  C    5.698962   4.432740   2.288446   1.440520   0.000000
    11  C    5.671660   4.528713   2.928457   2.553900   1.404304
    12  Cl   4.478841   3.536403   2.956751   3.231876   2.756772
    13  C    6.958449   5.875601   4.294402   3.793548   2.421052
    14  C    8.057457   6.903006   4.998815   4.226346   2.794218
    15  C    8.087796   6.850955   4.666152   3.675661   2.427250
    16  C    7.014085   5.737831   3.450404   2.369089   1.398272
    17  H    3.402765   3.887024   4.511063   5.572674   6.264269
    18  H    2.167595   3.416684   5.240918   6.451353   7.260493
    19  H    1.092273   2.137274   4.527570   5.653138   6.508218
    20  H    2.164255   1.090042   2.642684   3.529139   4.408884
    21  H    7.224732   6.263859   5.015980   4.690096   3.403529
    22  H    9.041707   7.922918   6.076836   5.317584   3.885926
    23  H    9.088088   7.839598   5.580807   4.523658   3.414292
    24  H    7.290759   6.002226   3.643475   2.485575   2.129624
                   11         12         13         14         15
    11  C    0.000000
    12  Cl   1.737225   0.000000
    13  C    1.394609   2.688283   0.000000
    14  C    2.417286   3.994631   1.392549   0.000000
    15  C    2.800641   4.536080   2.417893   1.394566   0.000000
    16  C    2.416401   4.038438   2.777497   2.401729   1.388724
    17  H    6.369949   5.700784   7.453401   8.312584   8.248734
    18  H    7.188414   6.017975   8.374291   9.461088   9.529383
    19  H    6.402878   5.069861   7.663125   8.817181   8.903452
    20  H    4.492222   3.500552   5.821746   6.845383   6.798821
    21  H    2.145693   2.794202   1.090915   2.164936   3.411147
    22  H    3.401433   4.837435   2.149654   1.091757   2.161844
    23  H    3.891772   5.627017   3.408831   2.163332   1.091136
    24  H    3.388541   4.884359   3.868510   3.406009   2.172420
                   16         17         18         19         20
    16  C    0.000000
    17  H    7.297521   0.000000
    18  H    8.513938   2.504038   0.000000
    19  H    7.845809   4.313207   2.500909   0.000000
    20  H    5.697276   4.976967   4.322686   2.475435   0.000000
    21  H    3.868203   7.791072   8.563770   7.851427   6.204544
    22  H    3.395395   9.214986  10.392833   9.783104   7.858866
    23  H    2.154971   9.109404  10.501885   9.920151   7.784317
    24  H    1.091773   7.496663   8.777314   8.137939   5.966316
                   21         22         23         24
    21  H    0.000000
    22  H    2.486847   0.000000
    23  H    4.316872   2.499367   0.000000
    24  H    4.958935   4.319003   2.513429   0.000000
 Symmetry turned off by external request.
 Stoichiometry    C12H8Cl2N2
 Framework group  C1[X(C12H8Cl2N2)]
 Deg. of freedom    66
 Full point group                 C1      NOp   1
 Rotational constants (GHZ):           0.8503956           0.2820943           0.2465182
 Leave Link  202 at Fri Mar  6 17:31:51 2026, MaxMem=  2415919104 cpu:               0.1 elap:               0.1
 (Enter /prod/precompiled/gaussian/16c2/g16/l301.exe)
 Standard basis: def2SVP (5D, 7F)
 Ernie: Thresh=  0.10000D-02 Tol=  0.10000D-05 Strict=F.
   272 basis functions,   480 primitive gaussians,   288 cartesian basis functions
    64 alpha electrons       64 beta electrons
       nuclear repulsion energy      1226.6299259815 Hartrees.
 IExCor= 4639 DFT=T Ex+Corr=wB97XD ExCW=0 ScaHFX=  1.000000
 ScaDFX=  1.000000  1.000000  1.000000  1.000000 ScalE2=  1.000000  1.000000
 IRadAn=      5 IRanWt=     -1 IRanGd=            0 ICorTp=0 IEmpDi=121
 HFx  wShort=  0.000000 wLong=  0.200000 cFull=  0.222036 cShort=  0.000000 cLong=  0.777964
 DFx  wShort=  0.000000 wLong=  0.200000 cFull=  0.000000 cShort=  0.000000 cLong=  1.000000
 NAtoms=   24 NActive=   24 NUniq=   24 SFac= 1.00D+00 NAtFMM=   60 NAOKFM=F Big=F
 Integral buffers will be    131072 words long.
 Raffenetti 2 integral format.
 Two-electron integral symmetry is turned off.
 R6Disp:  Grimme-D2 Dispersion energy=       -0.0145643802 Hartrees.
 Nuclear repulsion after empirical dispersion term =     1226.6153616013 Hartrees.
 Leave Link  301 at Fri Mar  6 17:31:51 2026, MaxMem=  2415919104 cpu:               0.1 elap:               0.1
 (Enter /prod/precompiled/gaussian/16c2/g16/l302.exe)
 NPDir=0 NMtPBC=     1 NCelOv=     1 NCel=       1 NClECP=     1 NCelD=      1
         NCelK=      1 NCelE2=     1 NClLst=     1 CellRange=     0.0.
 One-electron integrals computed using PRISM.
   1 Symmetry operations used in ECPInt.
 ECPInt:  NShTT=    7750 NPrTT=   30142 LenC2=    7118 LenP2D=   19309.
 LDataN:  DoStor=T MaxTD1= 4 Len=   56
 NBasis=   272 RedAO= T EigKep=  2.29D-04  NBF=   272
 NBsUse=   272 1.00D-06 EigRej= -1.00D+00 NBFU=   272
 Precomputing XC quadrature grid using
 IXCGrd= 4 IRadAn=           5 IRanWt=          -1 IRanGd=           0 AccXCQ= 0.00D+00.
 Generated NRdTot=       0 NPtTot=           0 NUsed=           0 NTot=          32
 NSgBfM=   285   285   285   285   285 MxSgAt=    24 MxSgA2=    24.
 Leave Link  302 at Fri Mar  6 17:31:52 2026, MaxMem=  2415919104 cpu:               1.3 elap:               0.3
 (Enter /prod/precompiled/gaussian/16c2/g16/l303.exe)
 DipDrv:  MaxL=1.
 Leave Link  303 at Fri Mar  6 17:31:52 2026, MaxMem=  2415919104 cpu:               0.1 elap:               0.1
 (Enter /prod/precompiled/gaussian/16c2/g16/l401.exe)
 ExpMin= 1.22D-01 ExpMax= 1.04D+04 ExpMxC= 1.57D+03 IAcc=3 IRadAn=         5 AccDes= 0.00D+00
 Harris functional with IExCor= 4639 and IRadAn=       5 diagonalized for initial guess.
 HarFok:  IExCor= 4639 AccDes= 0.00D+00 IRadAn=         5 IDoV= 1 UseB2=F ITyADJ=14
 ICtDFT=  3500011 ScaDFX=  1.000000  1.000000  1.000000  1.000000
 FoFCou: FMM=F IPFlag=           0 FMFlag=      100000 FMFlg1=           0
         NFxFlg=           0 DoJE=T BraDBF=F KetDBF=T FulRan=T
         wScrn=  0.000000 ICntrl=       500 IOpCl=  0 I1Cent=   200000004 NGrid=           0
         NMat0=    1 NMatS0=      1 NMatT0=    0 NMatD0=    1 NMtDS0=    0 NMtDT0=    0
 Symmetry not used in FoFCou.
 Harris En= -1450.78083093761    
 JPrj=0 DoOrth=F DoCkMO=F.
 Leave Link  401 at Fri Mar  6 17:31:53 2026, MaxMem=  2415919104 cpu:               6.6 elap:               1.2
 (Enter /prod/precompiled/gaussian/16c2/g16/l502.exe)
 Two-electron integral symmetry not used.
 Closed shell SCF:
 Using DIIS extrapolation, IDIIS=  1040.
 NGot=  2415919104 LenX=  2415746906 LenY=  2415663521
 Requested convergence on RMS density matrix=1.00D-08 within 200 cycles.
 Requested convergence on MAX density matrix=1.00D-06.
 Requested convergence on             energy=1.00D-06.
 No special actions if energy rises.
 Fock matrices will be formed incrementally for  20 cycles.
 Integral accuracy reduced to 1.0D-05 until final iterations.

 Cycle   1  Pass 0  IDiag  1:
 FoFJK:  IHMeth= 1 ICntrl=       0 DoSepK=T KAlg= 0 I1Cent=           0 FoldK=F
 IRaf=         1 NMat=       1 IRICut=       1 DoRegI=T DoRafI=F ISym2E= 0 IDoP0=0 IntGTp=1.
 FoFCou: FMM=F IPFlag=           0 FMFlag=      100000 FMFlg1=           0
         NFxFlg=           0 DoJE=T BraDBF=F KetDBF=F FulRan=T
         wScrn=  0.000000 ICntrl=       500 IOpCl=  0 I1Cent=           0 NGrid=           0
         NMat0=    1 NMatS0=      1 NMatT0=    0 NMatD0=    1 NMtDS0=    0 NMtDT0=    0
 Symmetry not used in FoFCou.
 E= -1490.42320021511    
 DIIS: error= 3.72D-02 at cycle   1 NSaved=   1.
 NSaved= 1 IEnMin= 1 EnMin= -1490.42320021511     IErMin= 1 ErrMin= 3.72D-02
 ErrMax= 3.72D-02  0.00D+00 EMaxC= 1.00D-01 BMatC= 8.30D-01 BMatP= 8.30D-01
 IDIUse=3 WtCom= 6.28D-01 WtEn= 3.72D-01
 Coeff-Com:  0.100D+01
 Coeff-En:   0.100D+01
 Coeff:      0.100D+01
 Gap=     0.216 Goal=   None    Shift=    0.000
 GapD=    0.216 DampG=1.000 DampE=0.500 DampFc=0.5000 IDamp=-1.
 Damping current iteration by 5.00D-01
 RMSDP=8.45D-03 MaxDP=2.82D-01              OVMax= 8.97D-01

 Cycle   2  Pass 0  IDiag  1:
 RMSU=  4.16D-03    CP:  9.73D-01
 E= -1490.28522208997     Delta-E=        0.137978125143 Rises=F Damp=T
 DIIS: error= 2.06D-02 at cycle   2 NSaved=   2.
 NSaved= 2 IEnMin= 1 EnMin= -1490.42320021511     IErMin= 2 ErrMin= 2.06D-02
 ErrMax= 2.06D-02  0.00D+00 EMaxC= 1.00D-01 BMatC= 2.32D-01 BMatP= 8.30D-01
 IDIUse=3 WtCom= 7.94D-01 WtEn= 2.06D-01
 Coeff-Com:  0.184D+00 0.816D+00
 Coeff-En:   0.599D+00 0.401D+00
 Coeff:      0.270D+00 0.730D+00
 Gap=    -0.267 Goal=   None    Shift=    0.000
 RMSDP=4.04D-03 MaxDP=1.47D-01 DE= 1.38D-01 OVMax= 5.74D-01

 Cycle   3  Pass 0  IDiag  1:
 RMSU=  3.89D-03    CP:  9.60D-01  7.52D-01
 E= -1490.67817400405     Delta-E=       -0.392951914081 Rises=F Damp=F
 DIIS: error= 2.56D-02 at cycle   3 NSaved=   3.
 NSaved= 3 IEnMin= 3 EnMin= -1490.67817400405     IErMin= 2 ErrMin= 2.06D-02
 ErrMax= 2.56D-02  0.00D+00 EMaxC= 1.00D-01 BMatC= 2.45D-01 BMatP= 2.32D-01
 IDIUse=3 WtCom= 7.44D-01 WtEn= 2.56D-01
 Coeff-Com: -0.931D-01 0.546D+00 0.547D+00
 Coeff-En:   0.000D+00 0.224D+00 0.776D+00
 Coeff:     -0.693D-01 0.464D+00 0.605D+00
 Gap=     0.299 Goal=   None    Shift=    0.000
 RMSDP=2.62D-03 MaxDP=8.50D-02 DE=-3.93D-01 OVMax= 2.55D-01

 Cycle   4  Pass 0  IDiag  1:
 RMSU=  2.02D-03    CP:  9.53D-01  8.89D-01  6.00D-01
 E= -1490.97198239936     Delta-E=       -0.293808395314 Rises=F Damp=F
 DIIS: error= 3.32D-03 at cycle   4 NSaved=   4.
 NSaved= 4 IEnMin= 4 EnMin= -1490.97198239936     IErMin= 4 ErrMin= 3.32D-03
 ErrMax= 3.32D-03  0.00D+00 EMaxC= 1.00D-01 BMatC= 5.63D-03 BMatP= 2.32D-01
 IDIUse=3 WtCom= 9.67D-01 WtEn= 3.32D-02
 Coeff-Com: -0.619D-01 0.120D+00 0.119D+00 0.823D+00
 Coeff-En:   0.000D+00 0.000D+00 0.000D+00 0.100D+01
 Coeff:     -0.599D-01 0.116D+00 0.115D+00 0.829D+00
 Gap=     0.203 Goal=   None    Shift=    0.000
 RMSDP=6.10D-04 MaxDP=2.18D-02 DE=-2.94D-01 OVMax= 5.45D-02

 Cycle   5  Pass 0  IDiag  1:
 RMSU=  4.99D-04    CP:  9.50D-01  9.59D-01  6.43D-01  1.03D+00
 E= -1490.98105117635     Delta-E=       -0.009068776989 Rises=F Damp=F
 DIIS: error= 2.36D-03 at cycle   5 NSaved=   5.
 NSaved= 5 IEnMin= 5 EnMin= -1490.98105117635     IErMin= 5 ErrMin= 2.36D-03
 ErrMax= 2.36D-03  0.00D+00 EMaxC= 1.00D-01 BMatC= 1.24D-03 BMatP= 5.63D-03
 IDIUse=3 WtCom= 9.76D-01 WtEn= 2.36D-02
 Coeff-Com: -0.128D-01 0.903D-02-0.215D-01 0.255D+00 0.770D+00
 Coeff-En:   0.000D+00 0.000D+00 0.000D+00 0.000D+00 0.100D+01
 Coeff:     -0.125D-01 0.881D-02-0.210D-01 0.249D+00 0.776D+00
 Gap=     0.215 Goal=   None    Shift=    0.000
 RMSDP=2.90D-04 MaxDP=6.58D-03 DE=-9.07D-03 OVMax= 3.52D-02

 Cycle   6  Pass 0  IDiag  1:
 RMSU=  2.07D-04    CP:  9.49D-01  9.75D-01  6.25D-01  1.12D+00  1.11D+00
 E= -1490.98343594298     Delta-E=       -0.002384766629 Rises=F Damp=F
 DIIS: error= 5.91D-04 at cycle   6 NSaved=   6.
 NSaved= 6 IEnMin= 6 EnMin= -1490.98343594298     IErMin= 6 ErrMin= 5.91D-04
 ErrMax= 5.91D-04  0.00D+00 EMaxC= 1.00D-01 BMatC= 2.32D-04 BMatP= 1.24D-03
 IDIUse=3 WtCom= 9.94D-01 WtEn= 5.91D-03
 Coeff-Com:  0.838D-02-0.168D-01-0.210D-01-0.569D-01 0.287D+00 0.799D+00
 Coeff-En:   0.000D+00 0.000D+00 0.000D+00 0.000D+00 0.000D+00 0.100D+01
 Coeff:      0.833D-02-0.167D-01-0.209D-01-0.565D-01 0.286D+00 0.800D+00
 Gap=     0.222 Goal=   None    Shift=    0.000
 RMSDP=1.41D-04 MaxDP=4.65D-03 DE=-2.38D-03 OVMax= 1.81D-02

 Cycle   7  Pass 0  IDiag  1:
 RMSU=  1.00D-04    CP:  9.49D-01  9.74D-01  6.25D-01  1.13D+00  1.29D+00
                    CP:  1.15D+00
 E= -1490.98387801145     Delta-E=       -0.000442068474 Rises=F Damp=F
 DIIS: error= 4.27D-04 at cycle   7 NSaved=   7.
 NSaved= 7 IEnMin= 7 EnMin= -1490.98387801145     IErMin= 7 ErrMin= 4.27D-04
 ErrMax= 4.27D-04  0.00D+00 EMaxC= 1.00D-01 BMatC= 1.02D-04 BMatP= 2.32D-04
 IDIUse=3 WtCom= 9.96D-01 WtEn= 4.27D-03
 Coeff-Com:  0.704D-02-0.116D-01 0.182D-02-0.603D-01-0.627D-02 0.341D+00
 Coeff-Com:  0.728D+00
 Coeff-En:   0.000D+00 0.000D+00 0.000D+00 0.000D+00 0.000D+00 0.000D+00
 Coeff-En:   0.100D+01
 Coeff:      0.701D-02-0.115D-01 0.181D-02-0.600D-01-0.624D-02 0.340D+00
 Coeff:      0.729D+00
 Gap=     0.223 Goal=   None    Shift=    0.000
 RMSDP=6.54D-05 MaxDP=1.94D-03 DE=-4.42D-04 OVMax= 5.24D-03

 Cycle   8  Pass 0  IDiag  1:
 RMSU=  3.96D-05    CP:  9.49D-01  9.71D-01  6.29D-01  1.14D+00  1.33D+00
                    CP:  1.34D+00  1.20D+00
 E= -1490.98399849582     Delta-E=       -0.000120484364 Rises=F Damp=F
 DIIS: error= 3.19D-04 at cycle   8 NSaved=   8.
 NSaved= 8 IEnMin= 8 EnMin= -1490.98399849582     IErMin= 8 ErrMin= 3.19D-04
 ErrMax= 3.19D-04  0.00D+00 EMaxC= 1.00D-01 BMatC= 2.65D-05 BMatP= 1.02D-04
 IDIUse=3 WtCom= 9.97D-01 WtEn= 3.19D-03
 Coeff-Com:  0.113D-02-0.190D-02 0.113D-01-0.265D-02-0.784D-01-0.754D-01
 Coeff-Com:  0.288D+00 0.857D+00
 Coeff-En:   0.000D+00 0.000D+00 0.000D+00 0.000D+00 0.000D+00 0.000D+00
 Coeff-En:   0.000D+00 0.100D+01
 Coeff:      0.112D-02-0.189D-02 0.113D-01-0.264D-02-0.782D-01-0.751D-01
 Coeff:      0.288D+00 0.858D+00
 Gap=     0.223 Goal=   None    Shift=    0.000
 RMSDP=4.19D-05 MaxDP=1.10D-03 DE=-1.20D-04 OVMax= 2.59D-03

 Cycle   9  Pass 0  IDiag  1:
 RMSU=  2.07D-05    CP:  9.49D-01  9.68D-01  6.32D-01  1.13D+00  1.34D+00
                    CP:  1.43D+00  1.44D+00  1.19D+00
 E= -1490.98403570573     Delta-E=       -0.000037209913 Rises=F Damp=F
 DIIS: error= 8.52D-05 at cycle   9 NSaved=   9.
 NSaved= 9 IEnMin= 9 EnMin= -1490.98403570573     IErMin= 9 ErrMin= 8.52D-05
 ErrMax= 8.52D-05  0.00D+00 EMaxC= 1.00D-01 BMatC= 3.04D-06 BMatP= 2.65D-05
 IDIUse=1 WtCom= 1.00D+00 WtEn= 0.00D+00
 Coeff-Com: -0.463D-03 0.430D-03 0.378D-02 0.105D-01-0.213D-01-0.777D-01
 Coeff-Com: -0.474D-01 0.351D+00 0.781D+00
 Coeff:     -0.463D-03 0.430D-03 0.378D-02 0.105D-01-0.213D-01-0.777D-01
 Coeff:     -0.474D-01 0.351D+00 0.781D+00
 Gap=     0.223 Goal=   None    Shift=    0.000
 RMSDP=1.40D-05 MaxDP=2.95D-04 DE=-3.72D-05 OVMax= 9.04D-04

 Cycle  10  Pass 0  IDiag  1:
 RMSU=  8.34D-06    CP:  9.49D-01  9.68D-01  6.33D-01  1.13D+00  1.34D+00
                    CP:  1.45D+00  1.51D+00  1.35D+00  9.90D-01
 E= -1490.98404018222     Delta-E=       -0.000004476488 Rises=F Damp=F
 DIIS: error= 2.59D-05 at cycle  10 NSaved=  10.
 NSaved=10 IEnMin=10 EnMin= -1490.98404018222     IErMin=10 ErrMin= 2.59D-05
 ErrMax= 2.59D-05  0.00D+00 EMaxC= 1.00D-01 BMatC= 3.13D-07 BMatP= 3.04D-06
 IDIUse=1 WtCom= 1.00D+00 WtEn= 0.00D+00
 Coeff-Com: -0.188D-03 0.303D-03-0.424D-03 0.293D-02 0.345D-02-0.795D-02
 Coeff-Com: -0.488D-01 0.131D-01 0.277D+00 0.761D+00
 Coeff:     -0.188D-03 0.303D-03-0.424D-03 0.293D-02 0.345D-02-0.795D-02
 Coeff:     -0.488D-01 0.131D-01 0.277D+00 0.761D+00
 Gap=     0.223 Goal=   None    Shift=    0.000
 RMSDP=4.27D-06 MaxDP=8.57D-05 DE=-4.48D-06 OVMax= 3.05D-04

 Initial convergence to 1.0D-05 achieved.  Increase integral accuracy.
 Cycle  11  Pass 1  IDiag  1:
 E= -1490.98410258758     Delta-E=       -0.000062405364 Rises=F Damp=F
 DIIS: error= 7.63D-05 at cycle   1 NSaved=   1.
 NSaved= 1 IEnMin= 1 EnMin= -1490.98410258758     IErMin= 1 ErrMin= 7.63D-05
 ErrMax= 7.63D-05  0.00D+00 EMaxC= 1.00D-01 BMatC= 1.03D-06 BMatP= 1.03D-06
 IDIUse=1 WtCom= 1.00D+00 WtEn= 0.00D+00
 Coeff-Com:  0.100D+01
 Coeff:      0.100D+01
 Gap=     0.223 Goal=   None    Shift=    0.000
 RMSDP=4.27D-06 MaxDP=8.57D-05 DE=-6.24D-05 OVMax= 3.09D-04

 Cycle  12  Pass 1  IDiag  1:
 RMSU=  8.71D-05    CP:  1.00D+00
 E= -1490.98410359083     Delta-E=       -0.000001003244 Rises=F Damp=F
 DIIS: error= 1.11D-05 at cycle   2 NSaved=   2.
 NSaved= 2 IEnMin= 2 EnMin= -1490.98410359083     IErMin= 2 ErrMin= 1.11D-05
 ErrMax= 1.11D-05  0.00D+00 EMaxC= 1.00D-01 BMatC= 5.66D-08 BMatP= 1.03D-06
 IDIUse=1 WtCom= 1.00D+00 WtEn= 0.00D+00
 Coeff-Com:  0.370D-01 0.963D+00
 Coeff:      0.370D-01 0.963D+00
 Gap=     0.223 Goal=   None    Shift=    0.000
 RMSDP=5.46D-06 MaxDP=9.62D-05 DE=-1.00D-06 OVMax= 1.45D-04

 Cycle  13  Pass 1  IDiag  1:
 RMSU=  2.49D-06    CP:  1.00D+00  1.06D+00
 E= -1490.98410362757     Delta-E=       -0.000000036747 Rises=F Damp=F
 DIIS: error= 8.59D-06 at cycle   3 NSaved=   3.
 NSaved= 3 IEnMin= 3 EnMin= -1490.98410362757     IErMin= 3 ErrMin= 8.59D-06
 ErrMax= 8.59D-06  0.00D+00 EMaxC= 1.00D-01 BMatC= 5.11D-08 BMatP= 5.66D-08
 IDIUse=1 WtCom= 1.00D+00 WtEn= 0.00D+00
 Coeff-Com: -0.311D-01 0.495D+00 0.536D+00
 Coeff:     -0.311D-01 0.495D+00 0.536D+00
 Gap=     0.223 Goal=   None    Shift=    0.000
 RMSDP=1.29D-06 MaxDP=3.24D-05 DE=-3.67D-08 OVMax= 9.74D-05

 Cycle  14  Pass 1  IDiag  1:
 RMSU=  1.04D-06    CP:  1.00D+00  1.06D+00  8.13D-01
 E= -1490.98410368685     Delta-E=       -0.000000059274 Rises=F Damp=F
 DIIS: error= 2.00D-06 at cycle   4 NSaved=   4.
 NSaved= 4 IEnMin= 4 EnMin= -1490.98410368685     IErMin= 4 ErrMin= 2.00D-06
 ErrMax= 2.00D-06  0.00D+00 EMaxC= 1.00D-01 BMatC= 1.80D-09 BMatP= 5.11D-08
 IDIUse=1 WtCom= 1.00D+00 WtEn= 0.00D+00
 Coeff-Com: -0.983D-02 0.684D-01 0.137D+00 0.805D+00
 Coeff:     -0.983D-02 0.684D-01 0.137D+00 0.805D+00
 Gap=     0.223 Goal=   None    Shift=    0.000
 RMSDP=4.84D-07 MaxDP=1.02D-05 DE=-5.93D-08 OVMax= 6.19D-05

 Cycle  15  Pass 1  IDiag  1:
 RMSU=  3.79D-07    CP:  1.00D+00  1.06D+00  8.98D-01  1.19D+00
 E= -1490.98410369413     Delta-E=       -0.000000007288 Rises=F Damp=F
 DIIS: error= 1.30D-06 at cycle   5 NSaved=   5.
 NSaved= 5 IEnMin= 5 EnMin= -1490.98410369413     IErMin= 5 ErrMin= 1.30D-06
 ErrMax= 1.30D-06  0.00D+00 EMaxC= 1.00D-01 BMatC= 7.24D-10 BMatP= 1.80D-09
 IDIUse=1 WtCom= 1.00D+00 WtEn= 0.00D+00
 Coeff-Com:  0.741D-02-0.151D+00-0.135D+00 0.288D+00 0.991D+00
 Coeff:      0.741D-02-0.151D+00-0.135D+00 0.288D+00 0.991D+00
 Gap=     0.223 Goal=   None    Shift=    0.000
 RMSDP=5.17D-07 MaxDP=1.37D-05 DE=-7.29D-09 OVMax= 7.76D-05

 Cycle  16  Pass 1  IDiag  1:
 RMSU=  2.54D-07    CP:  1.00D+00  1.06D+00  9.75D-01  1.50D+00  1.66D+00
 E= -1490.98410369930     Delta-E=       -0.000000005170 Rises=F Damp=F
 DIIS: error= 8.83D-07 at cycle   6 NSaved=   6.
 NSaved= 6 IEnMin= 6 EnMin= -1490.98410369930     IErMin= 6 ErrMin= 8.83D-07
 ErrMax= 8.83D-07  0.00D+00 EMaxC= 1.00D-01 BMatC= 2.39D-10 BMatP= 7.24D-10
 IDIUse=1 WtCom= 1.00D+00 WtEn= 0.00D+00
 Coeff-Com:  0.553D-02-0.844D-01-0.881D-01-0.371D-01 0.441D+00 0.763D+00
 Coeff:      0.553D-02-0.844D-01-0.881D-01-0.371D-01 0.441D+00 0.763D+00
 Gap=     0.223 Goal=   None    Shift=    0.000
 RMSDP=2.77D-07 MaxDP=8.13D-06 DE=-5.17D-09 OVMax= 4.54D-05

 Cycle  17  Pass 1  IDiag  1:
 RMSU=  1.12D-07    CP:  1.00D+00  1.06D+00  1.01D+00  1.63D+00  2.07D+00
                    CP:  1.50D+00
 E= -1490.98410370106     Delta-E=       -0.000000001759 Rises=F Damp=F
 DIIS: error= 6.40D-07 at cycle   7 NSaved=   7.
 NSaved= 7 IEnMin= 7 EnMin= -1490.98410370106     IErMin= 7 ErrMin= 6.40D-07
 ErrMax= 6.40D-07  0.00D+00 EMaxC= 1.00D-01 BMatC= 9.19D-11 BMatP= 2.39D-10
 IDIUse=1 WtCom= 1.00D+00 WtEn= 0.00D+00
 Coeff-Com: -0.533D-03 0.231D-01 0.177D-01-0.130D+00-0.235D+00 0.305D+00
 Coeff-Com:  0.102D+01
 Coeff:     -0.533D-03 0.231D-01 0.177D-01-0.130D+00-0.235D+00 0.305D+00
 Coeff:      0.102D+01
 Gap=     0.223 Goal=   None    Shift=    0.000
 RMSDP=2.81D-07 MaxDP=8.00D-06 DE=-1.76D-09 OVMax= 4.72D-05

 Cycle  18  Pass 1  IDiag  1:
 RMSU=  8.09D-08    CP:  1.00D+00  1.06D+00  1.03D+00  1.72D+00  2.51D+00
                    CP:  2.15D+00  1.59D+00
 E= -1490.98410370219     Delta-E=       -0.000000001124 Rises=F Damp=F
 DIIS: error= 3.81D-07 at cycle   8 NSaved=   8.
 NSaved= 8 IEnMin= 8 EnMin= -1490.98410370219     IErMin= 8 ErrMin= 3.81D-07
 ErrMax= 3.81D-07  0.00D+00 EMaxC= 1.00D-01 BMatC= 3.43D-11 BMatP= 9.19D-11
 IDIUse=1 WtCom= 1.00D+00 WtEn= 0.00D+00
 Coeff-Com: -0.223D-02 0.404D-01 0.407D-01-0.362D-01-0.256D+00-0.157D+00
 Coeff-Com:  0.417D+00 0.954D+00
 Coeff:     -0.223D-02 0.404D-01 0.407D-01-0.362D-01-0.256D+00-0.157D+00
 Coeff:      0.417D+00 0.954D+00
 Gap=     0.223 Goal=   None    Shift=    0.000
 RMSDP=1.88D-07 MaxDP=5.47D-06 DE=-1.12D-09 OVMax= 3.26D-05

 Cycle  19  Pass 1  IDiag  1:
 RMSU=  4.26D-08    CP:  1.00D+00  1.06D+00  1.04D+00  1.78D+00  2.76D+00
                    CP:  2.58D+00  2.20D+00  1.69D+00
 E= -1490.98410370264     Delta-E=       -0.000000000457 Rises=F Damp=F
 DIIS: error= 2.18D-07 at cycle   9 NSaved=   9.
 NSaved= 9 IEnMin= 9 EnMin= -1490.98410370264     IErMin= 9 ErrMin= 2.18D-07
 ErrMax= 2.18D-07  0.00D+00 EMaxC= 1.00D-01 BMatC= 1.01D-11 BMatP= 3.43D-11
 IDIUse=1 WtCom= 1.00D+00 WtEn= 0.00D+00
 Coeff-Com: -0.903D-04-0.486D-02-0.242D-02 0.479D-01 0.708D-01-0.148D+00
 Coeff-Com: -0.412D+00 0.901D-01 0.136D+01
 Coeff:     -0.903D-04-0.486D-02-0.242D-02 0.479D-01 0.708D-01-0.148D+00
 Coeff:     -0.412D+00 0.901D-01 0.136D+01
 Gap=     0.223 Goal=   None    Shift=    0.000
 RMSDP=1.68D-07 MaxDP=4.99D-06 DE=-4.57D-10 OVMax= 2.93D-05

 Cycle  20  Pass 1  IDiag  1:
 RMSU=  2.39D-08    CP:  1.00D+00  1.06D+00  1.06D+00  1.82D+00  2.97D+00
                    CP:  2.92D+00  2.77D+00  2.55D+00  1.77D+00
 E= -1490.98410370282     Delta-E=       -0.000000000180 Rises=F Damp=F
 DIIS: error= 6.50D-08 at cycle  10 NSaved=  10.
 NSaved=10 IEnMin=10 EnMin= -1490.98410370282     IErMin=10 ErrMin= 6.50D-08
 ErrMax= 6.50D-08  0.00D+00 EMaxC= 1.00D-01 BMatC= 2.56D-12 BMatP= 1.01D-11
 IDIUse=1 WtCom= 1.00D+00 WtEn= 0.00D+00
 Coeff-Com:  0.545D-03-0.127D-01-0.119D-01 0.293D-01 0.974D-01-0.143D-01
 Coeff-Com: -0.292D+00-0.225D+00 0.556D+00 0.872D+00
 Coeff:      0.545D-03-0.127D-01-0.119D-01 0.293D-01 0.974D-01-0.143D-01
 Coeff:     -0.292D+00-0.225D+00 0.556D+00 0.872D+00
 Gap=     0.223 Goal=   None    Shift=    0.000
 RMSDP=6.52D-08 MaxDP=2.00D-06 DE=-1.80D-10 OVMax= 1.14D-05

 Cycle  21  Pass 1  IDiag  1:
 RMSU=  2.46D-08    CP:  1.00D+00  1.06D+00  1.06D+00  1.84D+00  3.00D+00
                    CP:  3.00D+00  2.97D+00  2.92D+00  2.18D+00  1.35D+00
 E= -1490.98410370284     Delta-E=       -0.000000000015 Rises=F Damp=F
 DIIS: error= 1.98D-08 at cycle  11 NSaved=  11.
 NSaved=11 IEnMin=11 EnMin= -1490.98410370284     IErMin=11 ErrMin= 1.98D-08
 ErrMax= 1.98D-08  0.00D+00 EMaxC= 1.00D-01 BMatC= 2.76D-13 BMatP= 2.56D-12
 IDIUse=1 WtCom= 1.00D+00 WtEn= 0.00D+00
 Coeff-Com:  0.162D-03-0.260D-02-0.293D-02 0.721D-04 0.137D-01 0.214D-01
 Coeff-Com: -0.848D-02-0.729D-01-0.716D-01 0.225D+00 0.898D+00
 Coeff:      0.162D-03-0.260D-02-0.293D-02 0.721D-04 0.137D-01 0.214D-01
 Coeff:     -0.848D-02-0.729D-01-0.716D-01 0.225D+00 0.898D+00
 Gap=     0.223 Goal=   None    Shift=    0.000
 RMSDP=1.35D-08 MaxDP=3.76D-07 DE=-1.55D-11 OVMax= 2.18D-06

 Cycle  22  Pass 1  IDiag  1:
 RMSU=  3.46D-09    CP:  1.00D+00  1.06D+00  1.06D+00  1.85D+00  3.00D+00
                    CP:  3.00D+00  3.00D+00  2.98D+00  2.30D+00  1.57D+00
                    CP:  1.29D+00
 E= -1490.98410370287     Delta-E=       -0.000000000032 Rises=F Damp=F
 DIIS: error= 1.24D-08 at cycle  12 NSaved=  12.
 NSaved=12 IEnMin=12 EnMin= -1490.98410370287     IErMin=12 ErrMin= 1.24D-08
 ErrMax= 1.24D-08  0.00D+00 EMaxC= 1.00D-01 BMatC= 4.35D-14 BMatP= 2.76D-13
 IDIUse=1 WtCom= 1.00D+00 WtEn= 0.00D+00
 Coeff-Com: -0.332D-04 0.116D-02 0.862D-03-0.429D-02-0.112D-01 0.100D-01
 Coeff-Com:  0.420D-01 0.119D-01-0.112D+00-0.607D-01 0.289D+00 0.833D+00
 Coeff:     -0.332D-04 0.116D-02 0.862D-03-0.429D-02-0.112D-01 0.100D-01
 Coeff:      0.420D-01 0.119D-01-0.112D+00-0.607D-01 0.289D+00 0.833D+00
 Gap=     0.223 Goal=   None    Shift=    0.000
 RMSDP=3.40D-09 MaxDP=6.45D-08 DE=-3.18D-11 OVMax= 4.62D-07

 SCF Done:  E(RwB97XD) =  -1490.98410370     A.U. after   22 cycles
            NFock= 22  Conv=0.34D-08     -V/T= 2.0053
 KE= 1.483120949329D+03 PE=-5.963358656178D+03 EE= 1.762638241545D+03
 Leave Link  502 at Fri Mar  6 17:32:15 2026, MaxMem=  2415919104 cpu:             225.6 elap:              22.3
 (Enter /prod/precompiled/gaussian/16c2/g16/l508.exe)
 QCSCF skips out because SCF is already converged.
 Leave Link  508 at Fri Mar  6 17:32:15 2026, MaxMem=  2415919104 cpu:               0.1 elap:               0.1
 (Enter /prod/precompiled/gaussian/16c2/g16/l801.exe)
 DoSCS=F DFT=T ScalE2(SS,OS)=  1.000000  1.000000
 Range of M.O.s used for correlation:     1   272
 NBasis=   272 NAE=    64 NBE=    64 NFC=     0 NFV=     0
 NROrb=    272 NOA=    64 NOB=    64 NVA=   208 NVB=   208

 **** Warning!!: The largest alpha MO coefficient is  0.14086951D+02

 Leave Link  801 at Fri Mar  6 17:32:16 2026, MaxMem=  2415919104 cpu:               0.1 elap:               0.1
 (Enter /prod/precompiled/gaussian/16c2/g16/l1101.exe)
 Using compressed storage, NAtomX=    24.
 Will process     25 centers per pass.
   1 Symmetry operations used in ECPInt.
 ECPInt:  NShTT=    7750 NPrTT=   30142 LenC2=    7118 LenP2D=   19309.
 LDataN:  DoStor=T MaxTD1= 5 Len=  102
 R6Disp: Adding Grimme-D2 dispersion energy 1st derivatives to the gradient.
 Leave Link 1101 at Fri Mar  6 17:32:16 2026, MaxMem=  2415919104 cpu:               1.7 elap:               0.4
 (Enter /prod/precompiled/gaussian/16c2/g16/l1102.exe)
 Symmetrizing basis deriv contribution to polar:
 IMax=3 JMax=2 DiffMx= 0.00D+00
 Leave Link 1102 at Fri Mar  6 17:32:17 2026, MaxMem=  2415919104 cpu:               0.3 elap:               0.1
 (Enter /prod/precompiled/gaussian/16c2/g16/l1110.exe)
 Forming Gx(P) for the SCF density, NAtomX=    24.
 Integral derivatives from FoFJK, PRISM(SPDF).
 Do as many integral derivatives as possible in FoFJK.
 G2DrvN: MDV=    2415916544.
 G2DrvN: will do    25 centers at a time, making    1 passes.
 Calling FoFCou, ICntrl=  3107 FMM=F I1Cent=   0 AccDes= 0.00D+00.
 FoFJK:  IHMeth= 1 ICntrl=    3107 DoSepK=T KAlg= 0 I1Cent=           0 FoldK=F
 IRaf=         1 NMat=       1 IRICut=       1 DoRegI=T DoRafI=F ISym2E= 0 IDoP0=0 IntGTp=1.
 FoFCou: FMM=F IPFlag=           0 FMFlag=      100000 FMFlg1=           0
         NFxFlg=           0 DoJE=F BraDBF=F KetDBF=F FulRan=T
         wScrn=  0.000000 ICntrl=      3507 IOpCl=  0 I1Cent=           0 NGrid=           0
         NMat0=    1 NMatS0=      1 NMatT0=    0 NMatD0=    1 NMtDS0=    0 NMtDT0=    0
 Symmetry not used in FoFCou.
 End of G2Drv F.D. properties file   721 does not exist.
 End of G2Drv F.D. properties file   722 does not exist.
 End of G2Drv F.D. properties file   788 does not exist.
 Leave Link 1110 at Fri Mar  6 17:32:35 2026, MaxMem=  2415919104 cpu:             203.9 elap:              18.6
 (Enter /prod/precompiled/gaussian/16c2/g16/l1002.exe)
 Minotr:  Closed shell wavefunction.
          IDoAtm=111111111111111111111111
          Direct CPHF calculation.
          Differentiating once with respect to electric field.
                with respect to dipole field.
          Differentiating once with respect to nuclear coordinates.
          Requested convergence is 1.0D-08 RMS, and 1.0D-07 maximum.
          Secondary convergence is 1.0D-12 RMS, and 1.0D-12 maximum.
          NewPWx=T KeepS1=F KeepF1=F KeepIn=T MapXYZ=F SortEE=F KeepMc=T.
         7195 words used for storage of precomputed grid.
 Keep R1 ints in memory in canonical form, NReq=1402150885.
 FoFCou: FMM=F IPFlag=           0 FMFlag=           0 FMFlg1=           0
         NFxFlg=           0 DoJE=F BraDBF=F KetDBF=F FulRan=T
         wScrn=  0.000000 ICntrl=       600 IOpCl=  0 I1Cent=           0 NGrid=           0
         NMat0=    1 NMatS0=  37128 NMatT0=    0 NMatD0=    1 NMtDS0=    0 NMtDT0=    0
 Symmetry not used in FoFCou.
 Two-electron integral symmetry not used.
          MDV=    2415919104 using IRadAn=       1.
          Solving linear equations simultaneously, MaxMat=       0.
          There are    75 degrees of freedom in the 1st order CPHF.  IDoFFX=6 NUNeed=     3.
     72 vectors produced by pass  0 Test12= 1.77D-14 1.33D-09 XBig12= 1.46D+02 5.13D+00.
 AX will form    72 AO Fock derivatives at one time.
     72 vectors produced by pass  1 Test12= 1.77D-14 1.33D-09 XBig12= 1.17D+01 5.71D-01.
     72 vectors produced by pass  2 Test12= 1.77D-14 1.33D-09 XBig12= 5.19D-01 8.92D-02.
     72 vectors produced by pass  3 Test12= 1.77D-14 1.33D-09 XBig12= 8.48D-03 7.45D-03.
     72 vectors produced by pass  4 Test12= 1.77D-14 1.33D-09 XBig12= 8.75D-05 1.04D-03.
     72 vectors produced by pass  5 Test12= 1.77D-14 1.33D-09 XBig12= 5.28D-07 7.00D-05.
     69 vectors produced by pass  6 Test12= 1.77D-14 1.33D-09 XBig12= 2.92D-09 7.01D-06.
     43 vectors produced by pass  7 Test12= 1.77D-14 1.33D-09 XBig12= 1.47D-11 4.22D-07.
      3 vectors produced by pass  8 Test12= 1.77D-14 1.33D-09 XBig12= 7.49D-14 2.43D-08.
      1 vectors produced by pass  9 Test12= 1.77D-14 1.33D-09 XBig12= 3.84D-16 1.96D-09.
 InvSVY:  IOpt=1 It=  1 EMax= 3.55D-15
 Solved reduced A of dimension   548 with    75 vectors.
 FullF1:  Do perturbations      1 to       3.
 Isotropic polarizability for W=    0.000000      169.90 Bohr**3.
 End of Minotr F.D. properties file   721 does not exist.
 End of Minotr F.D. properties file   722 does not exist.
 End of Minotr F.D. properties file   788 does not exist.
 Leave Link 1002 at Fri Mar  6 17:33:16 2026, MaxMem=  2415919104 cpu:             361.4 elap:              40.4
 (Enter /prod/precompiled/gaussian/16c2/g16/l601.exe)
 Copying SCF densities to generalized density rwf, IOpCl= 0 IROHF=0.

 **********************************************************************

            Population analysis using the SCF Density.

 **********************************************************************

 Alpha  occ. eigenvalues -- -101.69467-101.67287 -14.54630 -14.51913 -10.38537
 Alpha  occ. eigenvalues --  -10.38034 -10.35864 -10.35027 -10.33467 -10.33346
 Alpha  occ. eigenvalues --  -10.33275 -10.32887 -10.30884 -10.30493 -10.30344
 Alpha  occ. eigenvalues --  -10.29165  -9.60209  -9.58052  -7.35608  -7.34625
 Alpha  occ. eigenvalues --   -7.34573  -7.33438  -7.32457  -7.32446  -1.16989
 Alpha  occ. eigenvalues --   -1.01447  -0.99797  -0.95676  -0.93766  -0.91567
 Alpha  occ. eigenvalues --   -0.87456  -0.84748  -0.82684  -0.78335  -0.74354
 Alpha  occ. eigenvalues --   -0.72602  -0.70277  -0.66840  -0.65094  -0.60688
 Alpha  occ. eigenvalues --   -0.59428  -0.58403  -0.57738  -0.55210  -0.54248
 Alpha  occ. eigenvalues --   -0.53614  -0.52838  -0.52442  -0.51059  -0.48805
 Alpha  occ. eigenvalues --   -0.48049  -0.47724  -0.45979  -0.45510  -0.43775
 Alpha  occ. eigenvalues --   -0.43475  -0.41823  -0.40813  -0.39021  -0.36694
 Alpha  occ. eigenvalues --   -0.35686  -0.34048  -0.32288  -0.25057
 Alpha virt. eigenvalues --   -0.02732   0.03270   0.05887   0.06485   0.07790
 Alpha virt. eigenvalues --    0.10609   0.12122   0.15153   0.17139   0.17559
 Alpha virt. eigenvalues --    0.19016   0.20765   0.21184   0.21853   0.22179
 Alpha virt. eigenvalues --    0.23383   0.23556   0.25505   0.29828   0.32517
 Alpha virt. eigenvalues --    0.33429   0.34287   0.35037   0.35844   0.36344
 Alpha virt. eigenvalues --    0.37222   0.38916   0.40264   0.41144   0.44964
 Alpha virt. eigenvalues --    0.45814   0.46286   0.47116   0.49415   0.50117
 Alpha virt. eigenvalues --    0.51339   0.52129   0.52689   0.53199   0.53917
 Alpha virt. eigenvalues --    0.55215   0.55435   0.55751   0.57628   0.58555
 Alpha virt. eigenvalues --    0.59688   0.59780   0.60183   0.61360   0.62351
 Alpha virt. eigenvalues --    0.64077   0.65437   0.65936   0.67674   0.67944
 Alpha virt. eigenvalues --    0.69506   0.69606   0.71322   0.72290   0.73105
 Alpha virt. eigenvalues --    0.73486   0.74198   0.74315   0.74916   0.76535
 Alpha virt. eigenvalues --    0.77213   0.77497   0.78223   0.78739   0.79046
 Alpha virt. eigenvalues --    0.79515   0.80487   0.80998   0.82573   0.82943
 Alpha virt. eigenvalues --    0.83686   0.85678   0.86628   0.87332   0.88445
 Alpha virt. eigenvalues --    0.88818   0.89432   0.90766   0.91607   0.92189
 Alpha virt. eigenvalues --    0.94062   0.94223   0.95646   0.95979   0.98976
 Alpha virt. eigenvalues --    1.02077   1.02695   1.02993   1.05176   1.06829
 Alpha virt. eigenvalues --    1.10060   1.11426   1.13639   1.15866   1.18972
 Alpha virt. eigenvalues --    1.21737   1.22980   1.24377   1.24944   1.28299
 Alpha virt. eigenvalues --    1.30199   1.31378   1.31713   1.32474   1.32676
 Alpha virt. eigenvalues --    1.34689   1.35370   1.35630   1.36565   1.36995
 Alpha virt. eigenvalues --    1.39003   1.39270   1.45571   1.48507   1.50386
 Alpha virt. eigenvalues --    1.55934   1.58039   1.58389   1.59317   1.63204
 Alpha virt. eigenvalues --    1.67492   1.72789   1.74569   1.76233   1.77077
 Alpha virt. eigenvalues --    1.79128   1.79653   1.80192   1.82106   1.83160
 Alpha virt. eigenvalues --    1.83541   1.84182   1.84771   1.85122   1.86896
 Alpha virt. eigenvalues --    1.88609   1.89064   1.89905   1.92322   1.95480
 Alpha virt. eigenvalues --    1.97930   1.98236   2.00130   2.01066   2.01636
 Alpha virt. eigenvalues --    2.03232   2.04010   2.06321   2.07543   2.09933
 Alpha virt. eigenvalues --    2.11399   2.12755   2.15899   2.16611   2.18479
 Alpha virt. eigenvalues --    2.20567   2.21202   2.22719   2.25085   2.29062
 Alpha virt. eigenvalues --    2.30083   2.31352   2.33729   2.34048   2.34238
 Alpha virt. eigenvalues --    2.36800   2.37914   2.38449   2.39298   2.40048
 Alpha virt. eigenvalues --    2.42122   2.46368   2.50059   2.52091   2.58236
 Alpha virt. eigenvalues --    2.63059   2.64569   2.68313   2.68432   2.68878
 Alpha virt. eigenvalues --    2.70569   2.72876   2.75902   2.78338   2.81061
 Alpha virt. eigenvalues --    2.81505   2.81972   2.87829   2.89437   2.91366
 Alpha virt. eigenvalues --    2.92416   2.95278   3.04891   3.08346   3.13229
 Alpha virt. eigenvalues --    3.15611   3.20221   3.24119   3.39969   3.46141
 Alpha virt. eigenvalues --    3.60548   3.66534   3.88202
          Condensed to atoms (all electrons):
               1          2          3          4          5          6
     1  C    5.101952   0.240311  -0.066989   0.081768  -0.134084   0.102733
     2  C    0.240311   5.254812   0.242425   0.367084   0.075616  -0.159461
     3  Cl  -0.066989   0.242425  16.963091  -0.041621   0.002279   0.000654
     4  C    0.081768   0.367084  -0.041621   4.941637   0.310995   0.086733
     5  C   -0.134084   0.075616   0.002279   0.310995   5.093238   0.294218
     6  C    0.102733  -0.159461   0.000654   0.086733   0.294218   5.030784
     7  C    0.293719   0.092832   0.001769  -0.116700   0.056663   0.317263
     8  N    0.366599  -0.072334  -0.001852   0.005838  -0.000003   0.008092
     9  N   -0.057186   0.003642  -0.002085  -0.000044  -0.000005  -0.000020
    10  C   -0.001122   0.000631   0.004511  -0.000010  -0.000003   0.000013
    11  C   -0.000263   0.000333   0.000525  -0.000005   0.000001  -0.000001
    12  Cl  -0.007128   0.000767  -0.000003  -0.000451   0.000134  -0.000924
    13  C   -0.000025   0.000019  -0.000070  -0.000000   0.000000  -0.000000
    14  C   -0.000006   0.000001   0.000003   0.000000  -0.000000   0.000000
    15  C    0.000005   0.000000  -0.000024  -0.000000   0.000000   0.000000
    16  C   -0.000262  -0.000060  -0.000512  -0.000001   0.000000   0.000000
    17  H    0.016828  -0.066842   0.000423   0.440930  -0.059999   0.012469
    18  H   -0.001912   0.014749  -0.000100  -0.065093   0.450331  -0.067376
    19  H    0.014384  -0.001141   0.000006   0.012316  -0.065314   0.441280
    20  H   -0.076108   0.016207  -0.000086  -0.002529   0.013921  -0.064013
    21  H    0.000010  -0.000002   0.000000   0.000000   0.000000   0.000000
    22  H    0.000000  -0.000000   0.000000  -0.000000   0.000000  -0.000000
    23  H   -0.000000  -0.000000   0.000000   0.000000  -0.000000   0.000000
    24  H    0.000009  -0.000006   0.000053   0.000000  -0.000000  -0.000000
               7          8          9         10         11         12
     1  C    0.293719   0.366599  -0.057186  -0.001122  -0.000263  -0.007128
     2  C    0.092832  -0.072334   0.003642   0.000631   0.000333   0.000767
     3  Cl   0.001769  -0.001852  -0.002085   0.004511   0.000525  -0.000003
     4  C   -0.116700   0.005838  -0.000044  -0.000010  -0.000005  -0.000451
     5  C    0.056663  -0.000003  -0.000005  -0.000003   0.000001   0.000134
     6  C    0.317263   0.008092  -0.000020   0.000013  -0.000001  -0.000924
     7  C    5.073632  -0.066640   0.003301   0.000544   0.000105   0.010177
     8  N   -0.066640   6.615927   0.304609  -0.084795  -0.007681  -0.001331
     9  N    0.003301   0.304609   6.541638   0.352406  -0.063667  -0.005596
    10  C    0.000544  -0.084795   0.352406   5.213583   0.180645  -0.060523
    11  C    0.000105  -0.007681  -0.063667   0.180645   5.302463   0.259806
    12  Cl   0.010177  -0.001331  -0.005596  -0.060523   0.259806  16.905036
    13  C    0.000015  -0.000946   0.003782   0.084744   0.336599  -0.056503
    14  C   -0.000000   0.000049  -0.000214  -0.137982   0.086503   0.002555
    15  C   -0.000000  -0.000411   0.007556   0.093172  -0.149085   0.000702
    16  C    0.000007   0.006873  -0.074277   0.359853   0.037891   0.001416
    17  H   -0.001706  -0.000073   0.000001  -0.000001  -0.000000  -0.000001
    18  H    0.013166   0.000004  -0.000000   0.000000  -0.000000   0.000000
    19  H   -0.060407  -0.000116  -0.000000  -0.000000   0.000000  -0.000014
    20  H    0.460636  -0.010367   0.000971  -0.000083  -0.000051   0.002057
    21  H   -0.000003   0.000040  -0.000081   0.016053  -0.062905   0.002412
    22  H    0.000000   0.000000   0.000005  -0.001768   0.013803  -0.000114
    23  H   -0.000000   0.000005  -0.000111   0.012799  -0.001361   0.000007
    24  H   -0.000000   0.000314   0.004458  -0.061885   0.021399  -0.000047
              13         14         15         16         17         18
     1  C   -0.000025  -0.000006   0.000005  -0.000262   0.016828  -0.001912
     2  C    0.000019   0.000001   0.000000  -0.000060  -0.066842   0.014749
     3  Cl  -0.000070   0.000003  -0.000024  -0.000512   0.000423  -0.000100
     4  C   -0.000000   0.000000  -0.000000  -0.000001   0.440930  -0.065093
     5  C    0.000000  -0.000000   0.000000   0.000000  -0.059999   0.450331
     6  C   -0.000000   0.000000   0.000000   0.000000   0.012469  -0.067376
     7  C    0.000015  -0.000000  -0.000000   0.000007  -0.001706   0.013166
     8  N   -0.000946   0.000049  -0.000411   0.006873  -0.000073   0.000004
     9  N    0.003782  -0.000214   0.007556  -0.074277   0.000001  -0.000000
    10  C    0.084744  -0.137982   0.093172   0.359853  -0.000001   0.000000
    11  C    0.336599   0.086503  -0.149085   0.037891  -0.000000  -0.000000
    12  Cl  -0.056503   0.002555   0.000702   0.001416  -0.000001   0.000000
    13  C    4.978895   0.311228   0.075391  -0.102247   0.000000  -0.000000
    14  C    0.311228   5.043626   0.277881   0.074663  -0.000000  -0.000000
    15  C    0.075391   0.277881   5.095929   0.280205   0.000000  -0.000000
    16  C   -0.102247   0.074663   0.280205   5.034283   0.000000  -0.000000
    17  H    0.000000  -0.000000   0.000000   0.000000   0.650760  -0.011528
    18  H   -0.000000  -0.000000  -0.000000  -0.000000  -0.011528   0.660770
    19  H   -0.000000  -0.000000   0.000000  -0.000000  -0.000233  -0.011040
    20  H    0.000003  -0.000000   0.000000   0.000003   0.000011  -0.000190
    21  H    0.439486  -0.057493   0.012360  -0.002048  -0.000000  -0.000000
    22  H   -0.059671   0.444968  -0.063383   0.012373  -0.000000   0.000000
    23  H    0.011892  -0.063735   0.449345  -0.062133   0.000000  -0.000000
    24  H   -0.003063   0.012469  -0.068791   0.435787  -0.000000   0.000000
              19         20         21         22         23         24
     1  C    0.014384  -0.076108   0.000010   0.000000  -0.000000   0.000009
     2  C   -0.001141   0.016207  -0.000002  -0.000000  -0.000000  -0.000006
     3  Cl   0.000006  -0.000086   0.000000   0.000000   0.000000   0.000053
     4  C    0.012316  -0.002529   0.000000  -0.000000   0.000000   0.000000
     5  C   -0.065314   0.013921   0.000000   0.000000  -0.000000  -0.000000
     6  C    0.441280  -0.064013   0.000000  -0.000000   0.000000  -0.000000
     7  C   -0.060407   0.460636  -0.000003   0.000000  -0.000000  -0.000000
     8  N   -0.000116  -0.010367   0.000040   0.000000   0.000005   0.000314
     9  N   -0.000000   0.000971  -0.000081   0.000005  -0.000111   0.004458
    10  C   -0.000000  -0.000083   0.016053  -0.001768   0.012799  -0.061885
    11  C    0.000000  -0.000051  -0.062905   0.013803  -0.001361   0.021399
    12  Cl  -0.000014   0.002057   0.002412  -0.000114   0.000007  -0.000047
    13  C   -0.000000   0.000003   0.439486  -0.059671   0.011892  -0.003063
    14  C   -0.000000  -0.000000  -0.057493   0.444968  -0.063735   0.012469
    15  C    0.000000   0.000000   0.012360  -0.063383   0.449345  -0.068791
    16  C   -0.000000   0.000003  -0.002048   0.012373  -0.062133   0.435787
    17  H   -0.000233   0.000011  -0.000000  -0.000000   0.000000  -0.000000
    18  H   -0.011040  -0.000190  -0.000000   0.000000  -0.000000   0.000000
    19  H    0.658363  -0.012225   0.000000  -0.000000   0.000000   0.000000
    20  H   -0.012225   0.662887  -0.000000   0.000000  -0.000000  -0.000001
    21  H    0.000000  -0.000000   0.633573  -0.011068  -0.000177   0.000028
    22  H   -0.000000   0.000000  -0.011068   0.635183  -0.010307  -0.000180
    23  H    0.000000  -0.000000  -0.000177  -0.010307   0.635931  -0.009731
    24  H    0.000000  -0.000001   0.000028  -0.000180  -0.009731   0.636288
 Mulliken charges:
               1
     1  C    0.126768
     2  C   -0.009582
     3  Cl  -0.102399
     4  C   -0.020847
     5  C   -0.037987
     6  C   -0.002444
     7  C   -0.078375
     8  N   -0.061801
     9  N   -0.019083
    10  C    0.029219
    11  C    0.044944
    12  Cl  -0.052433
    13  C   -0.019525
    14  C    0.005484
    15  C   -0.010852
    16  C   -0.001814
    17  H    0.018961
    18  H    0.018219
    19  H    0.024141
    20  H    0.008957
    21  H    0.029815
    22  H    0.040160
    23  H    0.037578
    24  H    0.032897
 Sum of Mulliken charges =  -0.00000
 Mulliken charges with hydrogens summed into heavy atoms:
               1
     1  C    0.126768
     2  C   -0.009582
     3  Cl  -0.102399
     4  C   -0.001886
     5  C   -0.019768
     6  C    0.021697
     7  C   -0.069418
     8  N   -0.061801
     9  N   -0.019083
    10  C    0.029219
    11  C    0.044944
    12  Cl  -0.052433
    13  C    0.010290
    14  C    0.045643
    15  C    0.026726
    16  C    0.031083
 APT charges:
               1
     1  C    0.836014
     2  C    0.043835
     3  Cl  -0.263574
     4  C    0.119869
     5  C   -0.305889
     6  C    0.157773
     7  C   -0.234936
     8  N   -0.669093
     9  N    0.164584
    10  C   -0.138992
    11  C    0.274241
    12  Cl  -0.206832
    13  C   -0.164642
    14  C    0.035138
    15  C   -0.082074
    16  C    0.020617
    17  H    0.057582
    18  H    0.034651
    19  H    0.030504
    20  H    0.054196
    21  H    0.061373
    22  H    0.046349
    23  H    0.044280
    24  H    0.085027
 Sum of APT charges =  -0.00000
 APT charges with hydrogens summed into heavy atoms:
               1
     1  C    0.836014
     2  C    0.043835
     3  Cl  -0.263574
     4  C    0.177451
     5  C   -0.271237
     6  C    0.188277
     7  C   -0.180740
     8  N   -0.669093
     9  N    0.164584
    10  C   -0.138992
    11  C    0.274241
    12  Cl  -0.206832
    13  C   -0.103269
    14  C    0.081487
    15  C   -0.037794
    16  C    0.105643
 Electronic spatial extent (au):  <R**2>=           5069.6122
 Charge=             -0.0000 electrons
 Dipole moment (field-independent basis, Debye):
    X=             -2.3572    Y=             -1.9192    Z=              0.7962  Tot=              3.1422
 Quadrupole moment (field-independent basis, Debye-Ang):
   XX=            -86.4021   YY=           -100.1109   ZZ=           -105.5795
   XY=              5.4045   XZ=             -1.1060   YZ=             -1.5296
 Traceless Quadrupole moment (field-independent basis, Debye-Ang):
   XX=             10.9621   YY=             -2.7467   ZZ=             -8.2153
   XY=              5.4045   XZ=             -1.1060   YZ=             -1.5296
 Octapole moment (field-independent basis, Debye-Ang**2):
  XXX=            -84.3838  YYY=            351.3305  ZZZ=            -31.9919  XYY=            -25.2625
  XXY=             85.2226  XXZ=             -2.7884  XZZ=            -28.1681  YZZ=            113.0477
  YYZ=              1.1740  XYZ=             23.8878
 Hexadecapole moment (field-independent basis, Debye-Ang**3):
 XXXX=          -3460.0077 YYYY=          -2453.2948 ZZZZ=           -574.6333 XXXY=           -458.3903
 XXXZ=             70.6711 YYYX=           -547.4747 YYYZ=             72.0187 ZZZX=             47.1286
 ZZZY=             93.4238 XXYY=           -968.5478 XXZZ=           -739.0592 YYZZ=           -463.8566
 XXYZ=             24.7327 YYXZ=            -43.9035 ZZXY=           -162.3325
 N-N= 1.226615361601D+03 E-N=-5.963358657166D+03  KE= 1.483120949329D+03
  Exact polarizability:     263.968      26.074     134.957       5.601      -2.643     110.769
 Approx polarizability:     267.748       4.436     154.164      14.183      -2.438     145.717
 No NMR shielding tensors so no spin-rotation constants.
 Leave Link  601 at Fri Mar  6 17:33:16 2026, MaxMem=  2415919104 cpu:               0.9 elap:               0.2
 (Enter /prod/precompiled/gaussian/16c2/g16/l701.exe)
 ... and contract with generalized density number  0.
 Compute integral second derivatives.
 R6Disp: Adding Grimme-D2 dispersion energy 2nd derivatives to the Hessian.
   1 Symmetry operations used in ECPInt.
 ECPInt:  NShTT=    7750 NPrTT=   30142 LenC2=    7118 LenP2D=   19309.
 LDataN:  DoStor=T MaxTD1= 6 Len=  172
 Leave Link  701 at Fri Mar  6 17:33:16 2026, MaxMem=  2415919104 cpu:               1.1 elap:               0.2
 (Enter /prod/precompiled/gaussian/16c2/g16/l702.exe)
 L702 exits ... SP integral derivatives will be done elsewhere.
 Leave Link  702 at Fri Mar  6 17:33:17 2026, MaxMem=  2415919104 cpu:               0.1 elap:               0.1
 (Enter /prod/precompiled/gaussian/16c2/g16/l703.exe)
 Integral derivatives from FoFJK, PRISM(SPDF).
 Compute integral second derivatives, UseDBF=F ICtDFT=           0.
 Calling FoFJK, ICntrl=    100127 FMM=F ISym2X=0 I1Cent= 0 IOpClX= 0 NMat=1 NMatS=1 NMatT=0.
 FoFJK:  IHMeth= 1 ICntrl=  100127 DoSepK=T KAlg= 0 I1Cent=           0 FoldK=F
 IRaf=         1 NMat=       1 IRICut=       1 DoRegI=T DoRafI=F ISym2E= 0 IDoP0=0 IntGTp=1.
 FoFCou: FMM=F IPFlag=           0 FMFlag=      100000 FMFlg1=         800
         NFxFlg=           0 DoJE=F BraDBF=F KetDBF=F FulRan=T
         wScrn=  0.000000 ICntrl=    100527 IOpCl=  0 I1Cent=           0 NGrid=           0
         NMat0=    1 NMatS0=      1 NMatT0=    0 NMatD0=    1 NMtDS0=    0 NMtDT0=    0
 Symmetry not used in FoFCou.
 Leave Link  703 at Fri Mar  6 17:34:02 2026, MaxMem=  2415919104 cpu:             448.3 elap:              45.5
 (Enter /prod/precompiled/gaussian/16c2/g16/l716.exe)
 Dipole        =-9.27396856D-01-7.55071073D-01 3.13260141D-01
 Polarizability= 2.63968036D+02 2.60741974D+01 1.34956871D+02
                 5.60075038D+00-2.64333576D+00 1.10769438D+02
 Full mass-weighted force constant matrix:
 Low frequencies --- -391.2987   -7.9967   -0.0033   -0.0031   -0.0014    0.8234
 Low frequencies ---    6.0247   12.5586   28.1482
 ******    1 imaginary frequencies (negative Signs) ****** 
 Diagonal vibrational polarizability:
       37.5851426      79.4375959      35.5502474
 Harmonic frequencies (cm**-1), IR intensities (KM/Mole), Raman scattering
 activities (A**4/AMU), depolarization ratios for plane and unpolarized
 incident light, reduced masses (AMU), force constants (mDyne/A),
 and normal coordinates:
                           1         2         3         4         5
                           A         A         A         A         A
       Frequencies ---  -391.2986   12.3530   28.1402   75.0563  106.1913
    Reduced masses ---    13.3231   10.0883    7.8515    5.7634    6.7746
   Force constants ---     1.2019    0.0009    0.0037    0.0191    0.0450
    IR Intensities ---     8.6687    0.2361    2.0196    0.2332    0.1046
 Coord Atom Element:
   1     1     6          0.06900   0.00358  -0.04940  -0.05043  -0.06523
   2     1     6          0.12881  -0.00583   0.04819   0.03003   0.06886
   3     1     6         -0.22432  -0.07579   0.04715  -0.06951   0.06189
   1     2     6          0.05068   0.01982   0.06236  -0.04952   0.00496
   2     2     6          0.08500  -0.07893   0.06924  -0.02378   0.07149
   3     2     6         -0.11421   0.03602  -0.01291   0.01424   0.03884
   1     3    17          0.01143   0.01936   0.15581  -0.03214   0.07698
   2     3    17         -0.00257  -0.13647   0.22593   0.02454   0.14414
   3     3    17         -0.00574   0.19753  -0.06535  -0.05117   0.14162
   1     4     6          0.01810   0.03515   0.09901  -0.07419   0.05057
   2     4     6          0.01817  -0.10404  -0.02865  -0.14032   0.05364
   3     4     6         -0.02081   0.01572  -0.02830   0.17484  -0.05636
   1     5     6          0.01433   0.03438   0.02927  -0.09927   0.01631
   2     5     6         -0.01042  -0.06816  -0.13370  -0.19346   0.02307
   3     5     6         -0.00507  -0.10640  -0.00550   0.22577  -0.09824
   1     6     6          0.01422   0.01845  -0.07971  -0.09278  -0.05976
   2     6     6          0.02019  -0.00422  -0.14537  -0.10867  -0.00596
   3     6     6         -0.03583  -0.20920   0.03684   0.08577  -0.03653
   1     7     6          0.02308   0.00311  -0.11976  -0.06824  -0.09575
   2     7     6          0.05601   0.03002  -0.06204   0.00639   0.02295
   3     7     6         -0.12313  -0.19811   0.07156  -0.07005   0.04235
   1     8     7         -0.16319  -0.01071  -0.07646  -0.06076  -0.04484
   2     8     7         -0.28067   0.01601   0.12822   0.02610   0.07240
   3     8     7          0.83237  -0.05257   0.05369  -0.02938  -0.00859
   1     9     7          0.07460  -0.01876  -0.08643  -0.03055   0.03853
   2     9     7          0.06393   0.02181   0.13222  -0.00371  -0.18213
   3     9     7         -0.05278  -0.03556   0.08250  -0.09733  -0.08133
   1    10     6         -0.04330  -0.00886  -0.05084  -0.00010   0.02018
   2    10     6         -0.05059  -0.00527   0.01384  -0.02564  -0.16194
   3    10     6         -0.15024  -0.04343   0.04391  -0.07571  -0.08584
   1    11     6          0.00161  -0.01541  -0.01909   0.07879  -0.00894
   2    11     6          0.00849   0.10876  -0.04272   0.06224  -0.02648
   3    11     6         -0.08404   0.03985  -0.00295  -0.03155   0.01440
   1    12    17         -0.01414  -0.01279   0.00114   0.10695  -0.02479
   2    12    17         -0.01150   0.28528   0.06779   0.09373  -0.13601
   3    12    17         -0.00031   0.19551   0.02529  -0.09817  -0.03220
   1    13     6          0.01509  -0.02345   0.00031   0.13279  -0.02574
   2    13     6          0.03196   0.08303  -0.18867   0.12005   0.17078
   3    13     6         -0.04352   0.01220  -0.07168   0.07707   0.11965
   1    14     6          0.00220  -0.02589  -0.01362   0.10881  -0.01599
   2    14     6          0.01520  -0.06235  -0.27939   0.07215   0.16618
   3    14     6         -0.01546  -0.09837  -0.09156   0.12966   0.07217
   1    15     6         -0.01680  -0.01918  -0.04533   0.03177   0.01161
   2    15     6          0.00123  -0.17765  -0.21768  -0.04398  -0.07150
   3    15     6         -0.01344  -0.17847  -0.04148   0.07077  -0.09592
   1    16     6         -0.03578  -0.00878  -0.06273  -0.02074   0.03127
   2    16     6         -0.01452  -0.14550  -0.07026  -0.08561  -0.22451
   3    16     6         -0.06342  -0.14373   0.02734  -0.02863  -0.16567
   1    17     1          0.01625   0.04794   0.18342  -0.07289   0.10803
   2    17     1         -0.01599  -0.15712  -0.01228  -0.19257   0.06925
   3    17     1          0.03556   0.10130  -0.06694   0.26067  -0.09001
   1    18     1          0.00354   0.04649   0.05848  -0.12013   0.04717
   2    18     1         -0.05287  -0.09121  -0.20469  -0.29047   0.01484
   3    18     1          0.05761  -0.11895  -0.02359   0.36079  -0.17237
   1    19     1          0.00256   0.01776  -0.13698  -0.10839  -0.09175
   2    19     1         -0.01085   0.02332  -0.22803  -0.13554  -0.04225
   3    19     1          0.01310  -0.30297   0.05143   0.10412  -0.06033
   1    20     1          0.00899  -0.00950  -0.20558  -0.07020  -0.15396
   2    20     1          0.01348   0.08230  -0.07854   0.05806   0.01496
   3    20     1         -0.04959  -0.28124   0.11571  -0.15395   0.06660
   1    21     1          0.04182  -0.02647   0.02774   0.19288  -0.05075
   2    21     1          0.06019   0.17643  -0.23120   0.20030   0.30942
   3    21     1         -0.03017   0.07966  -0.10936   0.11813   0.22526
   1    22     1          0.01587  -0.03128   0.00203   0.15055  -0.03048
   2    22     1          0.03197  -0.08392  -0.39719   0.12212   0.32572
   3    22     1          0.01331  -0.11925  -0.14685   0.21659   0.15583
   1    23     1         -0.02148  -0.01940  -0.05509   0.01197   0.01890
   2    23     1          0.02157  -0.28995  -0.28626  -0.08890  -0.11310
   3    23     1          0.01946  -0.26411  -0.05777   0.11000  -0.15522
   1    24     1         -0.08136   0.00196  -0.08544  -0.08334   0.05531
   2    24     1          0.00459  -0.22702  -0.02191  -0.15111  -0.36713
   3    24     1         -0.04251  -0.19932   0.06355  -0.05940  -0.26393
                           6         7         8         9        10
                           A         A         A         A         A
       Frequencies ---   135.5528  175.9100  224.9986  239.3586  280.0145
    Reduced masses ---     5.3212    6.4228    9.0381    6.7745    6.3588
   Force constants ---     0.0576    0.1171    0.2696    0.2287    0.2938
    IR Intensities ---     0.5952    3.4124    1.0942    2.1480    5.6461
 Coord Atom Element:
   1     1     6         -0.01875   0.05719  -0.00672  -0.06599   0.03448
   2     1     6         -0.05796  -0.05298  -0.16297  -0.06535  -0.00858
   3     1     6          0.06387   0.04442   0.17875   0.22029  -0.07533
   1     2     6         -0.00033   0.03999  -0.02556  -0.05556   0.05612
   2     2     6          0.00926  -0.05074  -0.17228  -0.09640  -0.00183
   3     2     6         -0.04991   0.04783   0.21215   0.24947  -0.08358
   1     3    17         -0.03895   0.00804   0.10537  -0.08621   0.07350
   2     3    17         -0.09469  -0.05910   0.08805   0.00438  -0.04841
   3     3    17          0.09109  -0.08788  -0.03216  -0.10119   0.00188
   1     4     6          0.02531   0.02027  -0.02733  -0.01101   0.01387
   2     4     6          0.09652  -0.01291  -0.06511  -0.09545   0.03199
   3     4     6         -0.19514   0.06353   0.14079   0.12119   0.00040
   1     5     6          0.01131   0.05592   0.06110  -0.00498   0.05079
   2     5     6          0.05360   0.05048   0.13038  -0.00554   0.07428
   3     5     6         -0.12324   0.01352  -0.04089  -0.19108   0.07131
   1     6     6         -0.04390   0.09115   0.12134  -0.05275   0.06774
   2     6     6         -0.11233   0.07394   0.16042   0.00291   0.07037
   3     6     6          0.16301  -0.03161  -0.10131  -0.19958   0.07915
   1     7     6         -0.06232   0.08979   0.09500  -0.12899   0.08322
   2     7     6         -0.17742   0.00403  -0.00755  -0.10451   0.01732
   3     7     6          0.26131   0.01121   0.08467   0.10565   0.03789
   1     8     7         -0.02027   0.03464   0.02453  -0.04463  -0.01108
   2     8     7         -0.01753   0.01353  -0.19338   0.08991   0.05905
   3     8     7          0.04500   0.03556   0.04931   0.11351  -0.09211
   1     9     7         -0.01489  -0.06561   0.03527  -0.02586  -0.10749
   2     9     7          0.05648   0.25832  -0.22389   0.18333   0.28402
   3     9     7         -0.01869   0.14660  -0.00386   0.03522  -0.00419
   1    10     6         -0.02585  -0.04202  -0.09957   0.05411  -0.04077
   2    10     6          0.04490   0.12966  -0.08919  -0.04936  -0.14818
   3    10     6         -0.04563   0.08537  -0.03893  -0.07835  -0.16715
   1    11     6          0.02748  -0.03268  -0.10870   0.09200  -0.03124
   2    11     6          0.06407   0.15484  -0.06141  -0.05329  -0.18769
   3    11     6         -0.04774   0.10392  -0.04246  -0.07998  -0.18421
   1    12    17          0.05498  -0.04450  -0.02606   0.07210  -0.06743
   2    12    17          0.10450  -0.08833   0.19936  -0.03074   0.00990
   3    12    17         -0.11060  -0.11449  -0.18120   0.08959   0.06947
   1    13     6          0.06699  -0.01275  -0.06136   0.07052   0.01085
   2    13     6          0.04743   0.20265  -0.08321   0.00751  -0.10719
   3    13     6         -0.01022   0.16132   0.00789  -0.08004  -0.07469
   1    14     6          0.05125  -0.02811  -0.06565   0.07722  -0.00070
   2    14     6          0.00235  -0.01262  -0.01603   0.10651   0.11389
   3    14     6          0.01304   0.04019   0.07469  -0.03354   0.17739
   1    15     6         -0.00089  -0.05177  -0.07856   0.06473  -0.04552
   2    15     6         -0.02925  -0.25125   0.01735   0.08871   0.01923
   3    15     6          0.00407  -0.11656   0.09369  -0.03782   0.12712
   1    16     6         -0.03647  -0.05702  -0.10610   0.06923  -0.08644
   2    16     6          0.00248  -0.10515  -0.04425  -0.00684  -0.19639
   3    16     6         -0.02647  -0.03653   0.00244  -0.07782  -0.07971
   1    17     1          0.05273  -0.01724  -0.09872   0.06590  -0.07366
   2    17     1          0.17821  -0.01779  -0.05799  -0.10803   0.03158
   3    17     1         -0.33345   0.07685   0.13865   0.13152   0.01307
   1    18     1          0.03412   0.05095   0.06804   0.05694   0.02790
   2    18     1          0.12114   0.08556   0.26159   0.06190   0.08553
   3    18     1         -0.23912  -0.00247  -0.16756  -0.40967   0.12154
   1    19     1         -0.07048   0.12037   0.18616  -0.03568   0.07303
   2    19     1         -0.19155   0.13091   0.30952   0.09282   0.05886
   3    19     1          0.30427  -0.08936  -0.30158  -0.41844   0.13786
   1    20     1         -0.10218   0.13308   0.18181  -0.20912   0.16263
   2    20     1         -0.29634   0.01175   0.02371  -0.08999  -0.02971
   3    20     1          0.46384  -0.01005   0.01502   0.09942   0.09811
   1    21     1          0.10687   0.01217  -0.02549   0.04146   0.07920
   2    21     1          0.06796   0.30727  -0.08401   0.01748  -0.06414
   3    21     1         -0.00640   0.22930  -0.00224  -0.06526  -0.06262
   1    22     1          0.07725  -0.01723  -0.06016   0.08128   0.04243
   2    22     1         -0.01062  -0.03854   0.02820   0.19157   0.35876
   3    22     1          0.03880   0.03803   0.11086   0.02624   0.39170
   1    23     1         -0.01556  -0.06270  -0.08508   0.06684  -0.05303
   2    23     1         -0.07184  -0.49807   0.08327   0.16093   0.17111
   3    23     1          0.02595  -0.26591   0.16678   0.01181   0.27161
   1    24     1         -0.07679  -0.07150  -0.15222   0.10927  -0.15990
   2    24     1         -0.00758  -0.18977  -0.04978   0.01926  -0.19916
   3    24     1         -0.02522  -0.08901   0.00703  -0.06790  -0.06805
                          11        12        13        14        15
                           A         A         A         A         A
       Frequencies ---   289.2079  339.4194  399.5513  429.4209  463.4979
    Reduced masses ---     9.1446    6.7507   11.1044    3.3824    4.1917
   Force constants ---     0.4506    0.4582    1.0445    0.3675    0.5306
    IR Intensities ---     4.2552   14.6523    1.8141    3.6569    1.5373
 Coord Atom Element:
   1     1     6          0.03785   0.01229  -0.14540  -0.03709  -0.01097
   2     1     6          0.19925  -0.05801  -0.01568  -0.07047  -0.00687
   3     1     6          0.08347  -0.05267  -0.07423   0.13258  -0.02065
   1     2     6          0.18248  -0.06698   0.05112  -0.02786  -0.01909
   2     2     6          0.16058   0.00325  -0.10119  -0.11401  -0.01793
   3     2     6          0.06506  -0.11498  -0.05363   0.19171  -0.03141
   1     3    17         -0.06956  -0.02576   0.27782   0.01707   0.07145
   2     3    17         -0.18712   0.06445  -0.17033  -0.00842  -0.03122
   3     3    17         -0.11395   0.04758  -0.05607  -0.01719  -0.00632
   1     4     6          0.22349  -0.08343  -0.09420   0.03993  -0.08312
   2     4     6          0.09136  -0.02694   0.06220   0.11655   0.01878
   3     4     6          0.04805  -0.07611   0.10582  -0.17778   0.02784
   1     5     6          0.12368  -0.07348  -0.06448  -0.01348  -0.10086
   2     5     6         -0.07284  -0.04163   0.19387  -0.02573   0.03433
   3     5     6          0.01556   0.02533   0.05803   0.06001  -0.01123
   1     6     6         -0.02616   0.00415  -0.15317  -0.03115  -0.08611
   2     6     6         -0.04646  -0.03051   0.20651  -0.05620   0.03206
   3     6     6         -0.00652  -0.00547   0.06028   0.10931  -0.01324
   1     7     6         -0.06913   0.03358  -0.12633   0.02785  -0.05527
   2     7     6          0.10171  -0.03614   0.02269   0.11729  -0.04018
   3     7     6         -0.02233  -0.06099   0.07115  -0.17758  -0.01059
   1     8     7         -0.02934   0.03820  -0.24156  -0.01499  -0.00343
   2     8     7          0.34104  -0.11561   0.12108  -0.01834   0.01465
   3     8     7          0.10059   0.00966   0.02108   0.02828   0.03512
   1     9     7          0.08576  -0.09215  -0.16834  -0.02249   0.01592
   2     9     7         -0.14910   0.13790  -0.10327  -0.00367  -0.02699
   3     9     7          0.09150   0.26453  -0.05764   0.02319   0.04614
   1    10     6          0.01188   0.03733  -0.08049  -0.03800   0.04319
   2    10     6         -0.11995  -0.12101  -0.05282   0.04860   0.14781
   3    10     6          0.06964   0.16229   0.03707   0.00354   0.10651
   1    11     6         -0.09772  -0.00971   0.06009   0.02203   0.00975
   2    11     6         -0.12827  -0.18444   0.00863   0.02283   0.17620
   3    11     6          0.06586   0.12595   0.07080  -0.02626   0.12091
   1    12    17         -0.01661   0.15141   0.20662   0.03441  -0.09492
   2    12    17          0.09127   0.05723  -0.04955  -0.01292   0.00378
   3    12    17         -0.10689  -0.07253   0.04329   0.01842  -0.02776
   1    13     6         -0.13056  -0.14878  -0.05453   0.02053   0.05725
   2    13     6         -0.10884  -0.08300   0.09347  -0.01118  -0.17348
   3    13     6          0.05292   0.03195  -0.00762  -0.05987  -0.07769
   1    14     6         -0.10541  -0.10744  -0.07154   0.01385   0.09515
   2    14     6          0.04154   0.16423   0.00954   0.04105   0.06045
   3    14     6          0.04320  -0.06573  -0.14464   0.00391   0.04326
   1    15     6         -0.00771   0.00285  -0.12544  -0.03982   0.12272
   2    15     6          0.03944   0.09718   0.06659   0.00752   0.07160
   3    15     6          0.01253  -0.13885  -0.08601  -0.00628   0.04103
   1    16     6          0.04196   0.12099  -0.06203  -0.05151   0.08039
   2    16     6         -0.09294  -0.08109   0.07836  -0.02374  -0.14345
   3    16     6         -0.00902  -0.05403   0.02828  -0.04062  -0.12722
   1    17     1          0.34753  -0.09895  -0.32294   0.10310  -0.13047
   2    17     1          0.07707  -0.02525   0.04401   0.31797  -0.00057
   3    17     1          0.05571  -0.07702   0.16292  -0.51850   0.06361
   1    18     1          0.17482  -0.11020  -0.04371  -0.00628  -0.09443
   2    18     1         -0.21233  -0.03775   0.17805  -0.02172   0.02257
   3    18     1         -0.00032   0.11684   0.01252   0.03859  -0.02133
   1    19     1         -0.09888   0.02682  -0.14072  -0.04229  -0.05544
   2    19     1         -0.13877  -0.01597   0.22594  -0.08564   0.07025
   3    19     1         -0.02974   0.04807   0.05418   0.15697   0.00284
   1    20     1         -0.17809   0.04500   0.02242   0.09175  -0.05383
   2    20     1          0.13841  -0.03916  -0.06143   0.29923  -0.05770
   3    20     1         -0.05964  -0.05848   0.18060  -0.48789   0.01962
   1    21     1         -0.18812  -0.35203  -0.18977   0.01818   0.07364
   2    21     1         -0.13032  -0.10776   0.10720  -0.05470  -0.48630
   3    21     1          0.05398   0.07129   0.04043  -0.09054  -0.30665
   1    22     1         -0.16084  -0.19340  -0.05939   0.04123   0.06294
   2    22     1          0.15175   0.34172  -0.10184   0.05729   0.07222
   3    22     1          0.04235  -0.06221  -0.19892   0.05023   0.00694
   1    23     1          0.01690   0.04362  -0.12122  -0.05091   0.11844
   2    23     1          0.13494   0.18931   0.05525  -0.01317   0.06642
   3    23     1         -0.00704  -0.21729  -0.11126   0.01829   0.05742
   1    24     1          0.09431   0.34694   0.05756  -0.05448   0.08848
   2    24     1         -0.13032  -0.09686   0.12210  -0.07815  -0.46036
   3    24     1         -0.04393  -0.10655   0.03367  -0.07610  -0.33495
                          16        17        18        19        20
                           A         A         A         A         A
       Frequencies ---   465.9085  516.7138  532.6758  562.3977  578.5920
    Reduced masses ---     5.5662    4.7405    4.2839    7.0850    7.7380
   Force constants ---     0.7119    0.7457    0.7162    1.3203    1.5262
    IR Intensities ---     0.2756    4.9198    8.6300    9.5285    1.1659
 Coord Atom Element:
   1     1     6          0.00891  -0.07581  -0.04477   0.16072  -0.01901
   2     1     6          0.03946  -0.09968  -0.04935  -0.12628  -0.13298
   3     1     6         -0.00639   0.25036   0.04893   0.10879  -0.05980
   1     2     6          0.04683   0.05340   0.00893  -0.03917  -0.04869
   2     2     6          0.08737   0.15935  -0.00581  -0.00170  -0.13566
   3     2     6         -0.05357  -0.21215  -0.02724  -0.07340  -0.08800
   1     3    17         -0.08513   0.01740  -0.03008   0.02008  -0.06280
   2     3    17          0.03071  -0.03590   0.01118   0.01511   0.05499
   3     3    17          0.01045   0.01057   0.00605   0.02130   0.02230
   1     4     6          0.09795   0.04201   0.04663  -0.15840  -0.06019
   2     4     6         -0.06383   0.06979  -0.01970   0.08110  -0.15798
   3     4     6          0.04900  -0.07084  -0.06317  -0.06448  -0.11727
   1     5     6          0.13256  -0.03699   0.07644  -0.24695   0.10950
   2     5     6         -0.03560  -0.11356  -0.03174  -0.05655   0.00484
   3     5     6         -0.00056   0.20093   0.06916   0.05669   0.04211
[...]
 777,-0.31017955,0.02969706,-0.03459907,0.01768408,0.04986961,-0.075313
 62,-0.00110496,-0.00129553,0.00235729,-0.07439050,-0.00865736,0.013776
 32,0.06101668,-0.03883007,0.05503837,-0.27136637,-0.03972778,0.0705767
 0,0.70686432,0.00076523,0.00030157,0.00099349,-0.00032956,-0.00028640,
 0.00006862,0.00018565,0.00000748,0.00008137,0.00019380,0.00026122,-0.0
 0005977,-0.00026983,-0.00001659,-0.00006838,0.00008501,-0.00013328,0.0
 0010785,-0.00024654,0.00027453,-0.00017609,-0.00470480,-0.00067964,0.0
 0137497,-0.01783822,0.00231447,-0.00217089,0.06352975,-0.08864007,0.03
 534087,0.01887436,0.00344122,0.00542433,0.00037997,0.00171853,0.004351
 50,-0.00700237,-0.00545845,0.00098546,-0.00713289,-0.00770356,0.025101
 98,-0.08074674,-0.11593983,0.07472575,0.00095732,0.33171132,-0.0036264
 1,0.00026264,-0.00210850,0.00128956,0.00038126,0.00029868,-0.00034001,
 0.00023574,0.00004953,-0.00046599,-0.00005354,0.00015718,0.00047051,0.
 00011004,0.00016318,-0.00024122,-0.00004675,-0.00024098,0.00084748,-0.
 00034980,0.00041877,0.01103676,0.00395982,0.00080228,0.02116524,-0.003
 22144,0.01026744,-0.08847762,0.03572664,-0.12988286,-0.02736547,0.0015
 3225,0.00528382,-0.00104581,0.00442509,-0.00188333,0.01385509,0.001181
 83,-0.00613194,0.00929548,0.02587999,-0.03077047,0.13178634,0.07534687
 ,-0.18677211,-0.01830684,-0.28507493,0.58322346,-0.00448129,-0.0009495
 5,-0.00229066,0.00095144,-0.02264589,-0.01430902,0.00083947,-0.0006693
 8,0.00027357,-0.05787656,-0.01684757,-0.01392421,0.00798856,0.02069091
 ,0.01280129,-0.00366685,0.00349219,-0.00006862,-0.00106152,0.00004638,
 0.00008986,-0.00000750,-0.00127024,-0.00049350,0.00010054,0.00050776,-
 0.00007825,0.00000822,-0.00024789,-0.00000300,-0.00006414,0.00000009,-
 0.00005389,0.00002554,-0.00001134,0.00001031,-0.00001582,0.00001305,0.
 00001624,-0.00001867,-0.00000398,0.00000697,-0.00000652,-0.00002179,0.
 00002477,0.00003715,0.00002085,0.00004869,0.05636994,-0.00035967,0.002
 20864,-0.00201931,0.00335809,-0.00390496,-0.00403003,0.00019045,-0.000
 07871,0.00184175,-0.01910364,-0.26370630,-0.13688512,-0.00450206,-0.00
 814807,-0.00847142,0.00370716,0.00132393,-0.00259291,0.00004542,0.0003
 5619,0.00080166,-0.00045574,-0.00013141,-0.00034374,0.00021036,0.00009
 497,-0.00007073,-0.00007350,-0.00005380,0.00008712,-0.00004767,0.00001
 395,-0.00004111,0.00003044,0.00001940,0.00000322,-0.00001194,-0.000004
 90,-0.00000247,-0.00000960,-0.00000243,0.00000595,-0.00000301,-0.00001
 042,0.00001092,0.00002871,-0.00000483,0.00003305,0.01775024,0.27327578
 ,-0.00252429,-0.00203887,0.00415081,0.00135777,-0.00920371,-0.00149774
 ,0.00080386,0.00183435,-0.00191510,-0.01477057,-0.13672198,-0.12171880
 ,-0.00252503,-0.00300319,0.00233522,0.00008705,-0.00284813,0.00513690,
 0.00014129,0.00088976,-0.00046022,0.00011058,-0.00072541,0.00005840,-0
 .00001937,0.00019180,-0.00016540,-0.00001754,-0.00007491,0.00005815,-0
 .00003690,0.00001001,-0.00005508,0.00000877,-0.00003209,0.00001876,-0.
 00000966,0.00001131,0.00001707,-0.00000513,-0.00000497,0.00000733,-0.0
 0000289,-0.00000879,0.00000365,0.00001202,-0.00001026,0.00003200,0.016
 69183,0.14964456,0.11739100,0.00021648,0.00042917,0.00047567,-0.000940
 60,0.00343335,0.00057657,-0.00109412,0.00015368,-0.00022011,-0.0160766
 8,-0.00979926,-0.00923080,-0.29208870,-0.07181382,-0.09343234,0.001662
 81,0.00228328,0.00127494,0.00182193,0.00017472,-0.00068105,0.00001589,
 -0.00007865,0.00002554,0.00012802,0.00008646,0.00001525,-0.00000078,-0
 .00003439,0.00002486,-0.00002912,0.00001291,-0.00002827,0.00000811,-0.
 00000829,0.00000799,-0.00001017,0.00000231,-0.00000151,-0.00000400,-0.
 00000295,0.00000334,0.00000381,-0.00001054,0.00000709,0.00001919,-0.00
 000583,0.00001815,0.00067238,-0.00047528,0.00071016,0.30534385,0.00063
 365,-0.00095398,-0.00008580,0.00240464,0.00005183,-0.00311110,0.000990
 30,0.00010358,-0.00011033,0.01775136,0.00780831,0.00699313,-0.07204790
 ,-0.07485521,-0.03933699,-0.02482785,-0.00238885,-0.00735669,0.0012255
 4,-0.00248570,-0.00461261,-0.00023523,0.00018030,0.00031892,0.00008271
 ,0.00007361,0.00000408,-0.00001100,-0.00008334,0.00001544,-0.00000643,
 -0.00000814,-0.00000593,-0.00000039,0.00001124,-0.00000235,-0.00001414
 ,0.00000652,0.00000181,-0.00000388,-0.00000342,0.00000487,-0.00000251,
 -0.00000180,0.00000595,0.00000991,0.00000061,0.00001294,-0.00083824,-0
 .00053970,0.00202859,0.07607795,0.07336036,0.00047323,0.00015535,-0.00
 053297,0.00056547,-0.00278890,0.00459495,0.00028771,-0.00036138,0.0004
 0817,0.00627850,0.00174095,0.00419289,-0.09344630,-0.03957144,-0.07283
 865,-0.01437397,-0.00176657,-0.00208607,-0.00046647,-0.00505162,0.0029
 3534,0.00011381,0.00014230,-0.00025100,0.00002644,-0.00007118,-0.00006
 701,0.00000301,0.00004310,0.00000024,0.00005340,-0.00001519,0.00001508
 ,-0.00003289,0.00001311,-0.00002293,-0.00002623,0.00000651,-0.00000420
 ,0.00000249,-0.00000528,0.00000653,0.00000002,0.00000097,-0.00000382,-
 0.00000203,0.00000177,0.00000604,0.00055482,0.00215983,-0.00293201,0.0
 9993640,0.04369004,0.06906718,-0.00312110,-0.00125034,-0.00298031,0.00
 004955,-0.00095643,-0.00042841,-0.00000077,0.00002814,0.00013336,0.001
 55104,-0.00052568,-0.00131876,0.00639576,-0.00418514,-0.00196947,-0.23
 935010,0.13387983,0.03712293,-0.01546010,0.01721628,0.00621132,-0.0009
 3096,0.00088367,0.00010541,0.00021032,0.00001257,-0.00012511,-0.000029
 84,-0.00015806,0.00010668,-0.00020099,0.00006825,-0.00014643,0.0000881
 5,-0.00003684,0.00003704,-0.00001449,-0.00000208,0.00001460,-0.0000207
 5,-0.00001362,0.00001891,0.00001196,-0.00002557,0.00002826,0.00004948,
 -0.00001538,0.00007534,0.00017792,-0.00018895,-0.00009263,0.00037214,-
 0.00015155,0.00078176,0.24956401,-0.00263011,0.00208063,-0.00345177,-0
 .00109885,-0.00033920,0.00000919,0.00011943,-0.00011105,0.00029725,-0.
 00087342,-0.00232022,-0.00542398,0.02232469,-0.00820068,-0.00279504,0.
 13422257,-0.15143381,-0.03774433,-0.00844346,0.00795212,0.00054114,0.0
 0032579,0.00073177,0.00014387,-0.00012768,-0.00013577,0.00009420,0.000
 07172,-0.00002872,-0.00008829,-0.00004036,0.00000497,-0.00001279,0.000
 02474,-0.00001064,0.00001751,0.00000315,-0.00000261,0.00000084,-0.0000
 0322,-0.00000536,0.00000541,0.00001101,0.00000159,0.00000265,-0.000011
 23,0.00000564,-0.00000416,0.00102254,-0.00053619,-0.00012595,-0.000575
 33,-0.00025190,0.00210650,-0.14399398,0.15329277,-0.00338929,-0.003202
 59,0.00440222,-0.00025203,0.00014835,-0.00082104,0.00009795,0.00032496
 ,-0.00038197,-0.00150093,-0.00544353,0.00326609,0.01338946,-0.00805949
 ,0.00245452,0.03751462,-0.03782353,-0.05345185,-0.00935894,0.00576927,
 0.00572165,-0.00035978,0.00011321,0.00036297,0.00014983,0.00015719,-0.
 00004021,0.00002410,-0.00015708,-0.00003049,0.00004126,-0.00000769,0.0
 0000868,-0.00001728,-0.00002951,-0.00000874,-0.00001232,0.00002230,0.0
 0000996,0.00000025,0.00000158,-0.00000260,-0.00000035,0.00000151,0.000
 01315,0.00002171,0.00001653,-0.00001139,0.00060402,-0.00033140,-0.0000
 7837,0.00055283,0.00218719,-0.00273699,-0.03840782,0.04416152,0.044463
 22,0.00292326,0.02175465,0.01306089,-0.00271004,0.00180455,-0.00060753
 ,-0.00043013,0.00122351,0.00073266,-0.00144914,0.00035588,0.00008740,-
 0.00416621,-0.00039168,-0.00248055,0.00296481,-0.02395045,-0.01386572,
 -0.05861418,-0.02311275,-0.01950972,0.00295917,0.00101049,0.00132784,-
 0.00099391,-0.00054631,-0.00009099,0.00001295,0.00021843,0.00000550,-0
 .00018795,0.00007678,-0.00003402,0.00006254,-0.00003794,-0.00000138,0.
 00007999,-0.00005127,0.00000341,0.00001064,0.00000293,-0.00000145,0.00
 002062,0.00001485,-0.00002608,-0.00006827,-0.00003895,-0.00001674,0.00
 002669,-0.00008966,0.00007900,-0.00002288,-0.00103532,-0.00072871,0.00
 065692,-0.00032699,0.00090182,0.05891939,-0.00528526,-0.00926211,-0.00
 874454,0.00267382,0.00071997,-0.00187924,0.00015354,-0.00068126,-0.000
 14775,0.00078092,0.00026625,0.00076219,-0.00110132,0.00315740,-0.00221
 647,0.00185373,-0.00260284,-0.00245346,-0.02072152,-0.26322137,-0.1402
 4945,-0.00150183,0.00010671,0.00044713,0.00060632,0.00036978,0.0007551
 2,-0.00006242,-0.00041111,-0.00005239,-0.00003015,-0.00003397,-0.00000
 255,-0.00006199,-0.00008368,0.00013711,0.00001262,0.00001198,0.0000170
 8,-0.00001047,0.00000516,-0.00001646,-0.00001291,-0.00000130,0.0000302
 1,0.00005120,0.00001569,-0.00000265,-0.00002420,-0.00016414,0.00018960
 ,0.00014678,-0.00001851,-0.00043102,-0.00058292,-0.00069199,0.00215463
 ,0.02311005,0.27252688,-0.00142763,-0.00233819,0.00156634,0.00001425,-
 0.00195135,0.00411594,0.00003969,0.00002255,-0.00028124,0.00003771,0.0
 0082261,-0.00037651,-0.00291647,-0.00234110,0.00467593,0.00159291,-0.0
 0818441,-0.00179606,-0.01965781,-0.14010238,-0.11858820,0.00006058,0.0
 0025862,-0.00107326,0.00022711,-0.00031478,-0.00078968,-0.00000783,0.0
 0043521,0.00003949,0.00067199,-0.00019377,0.00043393,-0.00033788,0.000
 24867,-0.00040838,-0.00025175,0.00005961,-0.00008393,0.00003838,-0.000
 03105,0.00003919,-0.00002550,0.00003658,-0.00006131,-0.00005294,0.0000
 1705,-0.00006037,0.00009919,0.00020059,-0.00039031,-0.00004219,-0.0006
 3683,0.00024941,0.00081903,0.00226424,-0.00313481,0.02114703,0.1517122
 1,0.11595831,0.00026316,0.00007878,0.00012861,-0.00005621,-0.00009898,
 -0.00004324,-0.00000015,-0.00000102,-0.00000518,0.00003286,0.00000580,
 0.00000960,-0.00004679,-0.00001073,-0.00002231,0.00001997,0.00002617,0
 .00000565,-0.00011488,0.00002546,-0.00001469,0.00006223,0.00024105,-0.
 00045861,0.00053254,-0.00070320,0.00119210,-0.00336375,-0.00123494,0.0
 0201161,0.00613934,-0.01356762,0.01925168,0.00077741,-0.00070906,0.000
 68184,-0.06901029,0.03622549,-0.04954193,-0.00011154,0.01658982,-0.023
 38832,-0.00508183,0.00089044,-0.00070627,-0.00118088,-0.00029352,0.000
 43139,-0.00000232,-0.00000265,0.00000023,-0.00000041,-0.00000063,0.000
 00270,-0.00000699,-0.00000189,0.00000454,-0.00001043,0.00000213,0.0000
 2597,0.07037793,0.00037576,0.00006845,0.00014769,-0.00010984,-0.000046
 10,-0.00003664,0.00005127,-0.00002844,-0.00001905,0.00002812,0.0000104
 0,0.00000197,-0.00004706,-0.00002805,-0.00003108,0.00004668,0.00002301
 ,0.00002088,-0.00012835,0.00003400,-0.00001080,-0.00056778,0.00004278,
 -0.00032268,0.00070996,-0.00006657,0.00041162,-0.00223792,0.00367227,0
 .00301929,0.00415490,-0.00236976,0.00852738,0.00046508,-0.00164140,-0.
 00196247,0.03549829,-0.13877346,0.14179758,-0.00126537,0.00160368,0.00
 382361,0.00099268,0.00493416,0.00274089,0.00014965,-0.00028374,-0.0009
 6242,-0.00000495,-0.00000633,0.00000066,-0.00000050,-0.00000211,0.0000
 0271,-0.00000226,0.00000115,0.00000109,-0.00000422,-0.00000126,0.00001
 597,-0.03789434,0.13602885,-0.00039569,-0.00007791,-0.00018126,0.00008
 107,0.00009949,0.00007435,0.00000563,-0.00000322,0.00000007,-0.0000581
 2,0.00001524,-0.00001889,0.00004997,-0.00000868,0.00000179,-0.00000279
 ,-0.00002081,0.00001536,0.00008152,-0.00004003,0.00004638,0.00038437,0
 .00008589,0.00050497,-0.00096655,-0.00006944,-0.00061328,0.00315182,0.
 00367347,0.00101485,-0.00657190,0.00855932,-0.00837386,-0.00076132,-0.
 00184541,-0.00029786,-0.04742330,0.14192898,-0.23718796,0.00141961,0.0
 0316438,-0.00043163,-0.00103227,0.00259552,0.00325969,0.00057916,-0.00
 078331,0.00023684,0.00000310,0.00000098,0.00000327,0.00000150,-0.00000
 006,-0.00000045,0.00000951,0.00000138,-0.00000061,0.00000552,0.0000017
 3,-0.00002160,0.05148071,-0.15486577,0.24330715,0.00010478,0.00003249,
 -0.00000849,-0.00002495,0.00001617,0.00001048,0.00001222,-0.00001660,-
 0.00000673,-0.00000478,-0.00000235,0.00000123,-0.00000293,-0.00002215,
 -0.00001443,0.00003960,0.00001680,0.00002038,-0.00005222,-0.00001445,0
 .00001901,-0.00008556,-0.00003794,0.00001210,0.00004917,0.00001502,0.0
 0003049,-0.00020769,0.00052591,-0.00090717,-0.00332437,0.00155579,-0.0
 0159861,-0.00117741,-0.00013069,0.00028104,-0.01497834,-0.01176391,0.0
 1792037,-0.21841668,-0.07728535,0.12111175,0.00887054,0.00392543,-0.00
 587080,0.00099726,0.00111615,-0.00148579,-0.00000134,-0.00000192,-0.00
 000077,-0.00000196,-0.00000181,-0.00000162,-0.00000092,0.00000199,-0.0
 0000039,0.00000939,-0.00000076,-0.00002043,0.00086590,-0.00013122,-0.0
 0013012,0.22653907,0.00002072,0.00009785,0.00005254,-0.00001907,-0.000
 01513,0.00003436,0.00001773,-0.00001472,-0.00000935,-0.00000403,0.0000
 0860,-0.00000019,-0.00000853,-0.00001919,-0.00001217,0.00001596,0.0000
 0983,0.00001903,-0.00004866,-0.00001103,-0.00002992,-0.00017124,-0.000
 05209,-0.00012486,-0.00021974,-0.00064606,-0.00034320,0.00091301,-0.00
 053676,0.00010199,0.00132339,0.00501173,0.00319054,0.00036464,-0.00007
 303,-0.00007468,0.00637912,0.00649663,-0.00292775,-0.07748104,-0.08500
 537,0.06827297,-0.01368390,-0.00023105,0.00804968,0.00120102,0.0031901
 6,0.00560071,-0.00000051,0.00000019,-0.00000271,-0.00000007,-0.0000006
 9,-0.00000036,-0.00000111,0.00000074,-0.00000132,0.00000449,-0.0000004
 0,-0.00000228,-0.00024875,-0.00276787,-0.00229515,0.08228303,0.0772529
 6,-0.00018291,0.00003671,-0.00003828,0.00003683,0.00003266,0.00004558,
 0.00000861,-0.00000292,-0.00000181,-0.00003100,0.00000496,-0.00000471,
 0.00002180,-0.00000933,-0.00000075,-0.00000221,-0.00000023,0.00000551,
 0.00001367,-0.00002909,-0.00000317,0.00010697,0.00001487,0.00003501,-0
 .00003310,-0.00049998,-0.00023757,-0.00086808,-0.00018264,-0.00029808,
 -0.00181302,0.00318594,0.00275981,-0.00040683,-0.00012552,0.00008375,-
 0.00794620,-0.00218098,0.00816494,0.12129607,0.06812443,-0.14564635,0.
 01990115,0.00762299,-0.00701780,-0.00165198,0.00575441,-0.00141971,0.0
 0000102,0.00000125,-0.00000010,0.00000162,-0.00000012,0.00000020,0.000
 00319,-0.00000006,-0.00000139,0.00000251,-0.00000006,-0.00000658,0.000
 07172,-0.00228062,-0.00105626,-0.12926772,-0.07732838,0.14577215,0.000
 53374,0.00007974,0.00025267,-0.00015631,-0.00006184,-0.00003349,0.0000
 4241,-0.00003686,-0.00001238,0.00006416,0.00000419,-0.00000365,-0.0000
 6515,-0.00002131,-0.00002396,0.00004968,0.00001611,0.00003099,-0.00014
 115,0.00004910,-0.00004326,-0.00092674,-0.00027562,-0.00004986,-0.0002
 8698,0.00039602,-0.00071453,-0.00102574,-0.00160391,0.00334560,0.00051
 181,-0.00038216,0.00053136,0.00000445,0.00001463,-0.00003744,0.0015205
 1,0.00058108,-0.00067613,-0.00069620,-0.00111165,0.00184534,-0.3203704
 8,0.05430971,-0.06958584,-0.01528008,0.00612556,-0.00858375,-0.0000051
 3,-0.00000351,-0.00000552,-0.00000276,-0.00000201,-0.00000176,-0.00000
 900,0.00000180,0.00000055,0.00000519,-0.00000096,-0.00000086,-0.000129
 73,-0.00005805,0.00008756,0.00048944,-0.00002078,-0.00013932,0.3350261
 3,0.00017134,-0.00005741,0.00007412,-0.00006306,0.00002091,-0.00002923
 ,0.00001891,-0.00001726,-0.00000883,0.00001078,-0.00001879,-0.00000684
 ,-0.00000354,-0.00001471,-0.00000755,0.00001824,0.00002122,0.00000934,
 -0.00004696,0.00000088,-0.00000605,-0.00032582,-0.00015249,-0.00009843
 ,-0.00032751,0.00047147,-0.00018078,-0.00113298,0.00428040,0.00475875,
 -0.00054494,-0.00060634,0.00015650,0.00005160,-0.00045874,-0.00046618,
 0.00032681,0.00312435,0.00565933,0.01645126,0.00129025,0.00314366,0.05
 438440,-0.05619412,0.02361854,-0.01169483,0.00588013,-0.00271023,-0.00
 000585,-0.00000198,-0.00000084,0.00000068,-0.00000088,-0.00000027,-0.0
 0000093,-0.00000009,-0.00000092,0.00000256,-0.00000086,0.00000354,0.00
 067247,-0.00003322,0.00012161,-0.00023300,-0.00252003,-0.00234186,-0.0
 5794203,0.04789059,-0.00018760,-0.00001222,-0.00011588,0.00004383,0.00
 006288,0.00001689,-0.00000872,0.00000522,-0.00000127,-0.00003152,-0.00
 002055,-0.00000136,0.00003806,-0.00000227,0.00000682,-0.00001088,0.000
 01253,-0.00000283,0.00004148,-0.00004839,0.00001455,0.00055718,0.00017
 183,-0.00004780,0.00063513,-0.00011342,0.00039405,0.00257934,0.0040845
 3,0.00066552,0.00058270,0.00041839,-0.00123116,-0.00009272,-0.00040075
 ,-0.00014718,-0.00032388,0.00573995,-0.00154623,-0.02434288,0.00366107
 ,-0.00066817,-0.06974887,0.02397334,-0.07204998,0.01760992,-0.00364763
 ,0.00871620,-0.00000170,0.00000041,0.00000157,0.00000072,-0.00000014,-
 0.00000043,0.00000256,-0.00000096,-0.00000203,0.00000366,-0.00000023,-
 0.00000507,-0.00107800,0.00019029,-0.00008091,0.00019006,-0.00236572,-
 0.00065058,0.07397212,-0.02938423,0.06759096,-0.00119024,-0.00007989,-
 0.00025718,0.00030369,0.00025418,0.00018286,-0.00001800,0.00002692,0.0
 0004092,-0.00014462,0.00004749,-0.00006840,0.00014221,0.00002717,0.000
 04584,-0.00009637,-0.00007926,-0.00001216,0.00029606,-0.00013995,0.000
 05646,0.00153135,0.00045273,0.00134398,0.00140652,-0.00075871,-0.00260
 302,-0.00084016,0.01621780,-0.02356416,-0.00421999,0.00024876,-0.00017
 844,-0.00087069,0.00087028,-0.00109717,-0.00117361,-0.00012454,0.00017
 799,-0.00325740,-0.00161310,0.00276372,0.00945424,-0.01286261,0.019189
 23,-0.06646632,0.02639100,-0.04036438,0.00000981,0.00000791,0.00000774
 ,0.00000756,0.00000283,0.00000024,0.00001876,-0.00000291,-0.00000383,0
 .00000157,0.00000558,-0.00003254,0.00004486,-0.00002052,0.00000102,0.0
 0030178,-0.00061568,0.00087719,0.00084793,0.00021239,-0.00043001,0.063
 91107,-0.00027727,0.00025440,-0.00001694,0.00006106,0.00008713,0.00004
 293,0.00003074,-0.00005023,-0.00001689,-0.00003640,-0.00002956,0.00000
 266,0.00004437,-0.00001688,-0.00000201,0.00000077,0.00003803,0.0000065
 2,-0.00003403,-0.00005380,-0.00001651,-0.00030924,-0.00005707,0.000115
 41,-0.00249364,-0.00350618,-0.00241595,0.00029581,0.00169538,0.0057796
 3,0.00119446,0.00400815,0.00286778,-0.00017493,-0.00001529,0.00014705,
 -0.00008366,-0.00044438,-0.00082534,-0.00150905,0.00487073,0.00344982,
 0.00341422,0.00000953,0.00685485,0.02822937,-0.12997618,0.13773704,-0.
 00000263,0.00000113,0.00000114,0.00000362,-0.00000215,0.00000009,0.000
 00210,-0.00000313,-0.00000228,0.00000637,-0.00000502,-0.00000132,0.000
 00970,-0.00037043,-0.00023822,0.00015336,-0.00017526,0.00020356,-0.000
 05723,-0.00290326,-0.00232393,-0.02846787,0.12664432,0.00046969,0.0003
 5779,0.00036944,-0.00009743,-0.00000494,-0.00004327,0.00009948,-0.0000
 6849,-0.00001837,0.00002557,0.00000060,0.00002632,-0.00003864,-0.00004
 424,-0.00003177,0.00008166,0.00004351,0.00000192,-0.00020947,0.0000271
 0,-0.00000636,-0.00147159,-0.00042464,-0.00050240,0.00280171,-0.001486
 14,-0.00190830,-0.00030454,0.00471785,-0.00172926,-0.00146247,0.002228
 66,0.00205795,0.00017460,0.00021612,-0.00001483,0.00054042,-0.00083002
 ,0.00040224,0.00285318,0.00348082,0.00137001,-0.00609360,0.00782295,-0
 .00603782,-0.04082014,0.13764532,-0.25037377,-0.00000284,-0.00000305,-
 0.00000099,0.00000365,-0.00000404,0.00000049,-0.00000096,0.00000165,0.
 00000004,0.00000566,-0.00001073,-0.00000120,-0.00003979,-0.00021010,-0
 .00020016,-0.00028384,0.00019623,-0.00048379,-0.00015445,-0.00230317,-
 0.00085569,0.04392411,-0.15134907,0.25797958\\-0.00000008,0.00000085,0
 .00000211,-0.00000037,-0.00000175,0.00000022,0.00000031,0.00000154,0.0
 0000329,0.00000046,0.00000019,0.00000216,0.00000345,-0.00000525,-0.000
 00082,0.00000078,-0.00000136,-0.00000002,0.00000117,-0.00000292,-0.000
 00151,-0.00000882,-0.00000031,-0.00000283,0.00000100,0.00000104,0.0000
 0350,-0.00000439,-0.00000080,0.00000155,-0.00000572,-0.00000144,0.0000
 0112,-0.00000790,-0.00000006,-0.00000280,-0.00000167,0.00000403,-0.000
 00522,0.00000141,0.00000104,0.00000134,0.00000402,0.00000412,-0.000001
 74,-0.00000082,-0.00000077,0.00000481,0.00000126,-0.00000004,0.0000009
 2,0.00000318,-0.00000126,0.00000052,0.00000285,-0.00000282,-0.00000098
 ,-0.00000005,-0.00000059,-0.00000068,-0.00000133,0.00000192,-0.0000029
 8,0.00000609,0.00000394,-0.00000520,0.00000491,0.00000089,0.00000087,0
 .00000027,-0.00000020,0.00000238\\\@
 The archive entry for this job was punched.


 READER, WHETHER YOU BE DILETTANTE OR PROFESSOR ... SHOW YOURSELF TO BE
 MORE HUMAN THAN CRITICAL, AND THEN YOUR PLEASURE WILL INCREASE.
                                           -- DOMENICO SCARLATTI (1738)
 Job cpu time:       0 days  0 hours 20 minutes 52.8 seconds.
 Elapsed time:       0 days  0 hours  2 minutes 10.3 seconds.
 File lengths (MBytes):  RWF=    245 Int=      0 D2E=      0 Chk=      6 Scr=      1
 Normal termination of Gaussian 16 at Fri Mar  6 17:34:03 2026.
