 Entering Gaussian System, Link 0=g16
 Initial command:
 /prod/precompiled/gaussian/16c2/g16/l1.exe "/scratch/ucsscms/svela/2076945/Gau-49894.inp" -scrdir="/scratch/ucsscms/svela/2076945/"
 Entering Link 1 = /prod/precompiled/gaussian/16c2/g16/l1.exe PID=     49895.
  
 Copyright (c) 1988-2021, Gaussian, Inc.  All Rights Reserved.
  
 This is part of the Gaussian(R) 16 program.  It is based on
 the Gaussian(R) 09 system (copyright 2009, Gaussian, Inc.),
 the Gaussian(R) 03 system (copyright 2003, Gaussian, Inc.),
 the Gaussian(R) 98 system (copyright 1998, Gaussian, Inc.),
 the Gaussian(R) 94 system (copyright 1995, Gaussian, Inc.),
 the Gaussian 92(TM) system (copyright 1992, Gaussian, Inc.),
 the Gaussian 90(TM) system (copyright 1990, Gaussian, Inc.),
 the Gaussian 88(TM) system (copyright 1988, Gaussian, Inc.),
 the Gaussian 86(TM) system (copyright 1986, Carnegie Mellon
 University), and the Gaussian 82(TM) system (copyright 1983,
 Carnegie Mellon University). Gaussian is a federally registered
 trademark of Gaussian, Inc.
  
 This software contains proprietary and confidential information,
 including trade secrets, belonging to Gaussian, Inc.
  
 This software is provided under written license and may be
 used, copied, transmitted, or stored only in accord with that
 written license.
  
 The following legend is applicable only to US Government
 contracts under FAR:
  
                    RESTRICTED RIGHTS LEGEND
  
 Use, reproduction and disclosure by the US Government is
 subject to restrictions as set forth in subparagraphs (a)
 and (c) of the Commercial Computer Software - Restricted
 Rights clause in FAR 52.227-19.
  
 Gaussian, Inc.
 340 Quinnipiac St., Bldg. 40, Wallingford CT 06492
  
  
 ---------------------------------------------------------------
 Warning -- This program may not be used in any manner that
 competes with the business of Gaussian, Inc. or will provide
 assistance to any competitor of Gaussian, Inc.  The licensee
 of this program is prohibited from giving any competitor of
 Gaussian, Inc. access to this program.  By using this program,
 the user acknowledges that Gaussian, Inc. is engaged in the
 business of creating and licensing software in the field of
 computational chemistry and represents and warrants to the
 licensee that it is not a competitor of Gaussian, Inc. and that
 it will not use this program in any manner prohibited above.
 ---------------------------------------------------------------
  

 Cite this work as:
 Gaussian 16, Revision C.02,
 M. J. Frisch, G. W. Trucks, H. B. Schlegel, G. E. Scuseria, 
 M. A. Robb, J. R. Cheeseman, G. Scalmani, V. Barone, 
 G. A. Petersson, H. Nakatsuji, X. Li, M. Caricato, A. V. Marenich, 
 J. Bloino, B. G. Janesko, R. Gomperts, B. Mennucci, H. P. Hratchian, 
 J. V. Ortiz, A. F. Izmaylov, J. L. Sonnenberg, D. Williams-Young, 
 F. Ding, F. Lipparini, F. Egidi, J. Goings, B. Peng, A. Petrone, 
 T. Henderson, D. Ranasinghe, V. G. Zakrzewski, J. Gao, N. Rega, 
 G. Zheng, W. Liang, M. Hada, M. Ehara, K. Toyota, R. Fukuda, 
 J. Hasegawa, M. Ishida, T. Nakajima, Y. Honda, O. Kitao, H. Nakai, 
 T. Vreven, K. Throssell, J. A. Montgomery, Jr., J. E. Peralta, 
 F. Ogliaro, M. J. Bearpark, J. J. Heyd, E. N. Brothers, K. N. Kudin, 
 V. N. Staroverov, T. A. Keith, R. Kobayashi, J. Normand, 
 K. Raghavachari, A. P. Rendell, J. C. Burant, S. S. Iyengar, 
 J. Tomasi, M. Cossi, J. M. Millam, M. Klene, C. Adamo, R. Cammi, 
 J. W. Ochterski, R. L. Martin, K. Morokuma, O. Farkas, 
 J. B. Foresman, and D. J. Fox, Gaussian, Inc., Wallingford CT, 2019.
 
 ******************************************
 Gaussian 16:  ES64L-G16RevC.02  7-Dec-2021
                 6-Mar-2026 
 ******************************************
 %nprocs=12
 Will use up to   12 processors via shared memory.
 %mem=18gb
 %chk=test_tsrot_b_s_freq_r1.chk
 ----------------------------------------------------------------------
 #p nosymm scf=(maxconventionalcycles=200,xqc) wB97XD def2SVP freq(hpmo
 des)
 ----------------------------------------------------------------------
 1/10=4,30=1,38=1/1,3;
 2/12=2,15=1,17=6,18=5,40=1/2;
 3/5=43,7=101,11=2,25=1,30=1,71=2,74=-58,140=1/1,2,3;
 4//1;
 5/5=2,8=3,13=1,38=5,85=200,98=1/2,8;
 8/6=4,10=90,11=11/1;
 11/6=1,8=1,9=11,15=111,16=1,31=1/1,2,10;
 10/6=1,31=1/2;
 6/7=2,8=2,9=2,10=2,28=1/1;
 7/8=11,10=1,25=1,30=1/1,2,3,16;
 1/10=4,30=1/3;
 99//99;
 Leave Link    1 at Fri Mar  6 17:31:51 2026, MaxMem=  2415919104 cpu:               0.1 elap:               0.1
 (Enter /prod/precompiled/gaussian/16c2/g16/l101.exe)
 ----------
 Title Card
 ----------
 Symbolic Z-matrix:
 Charge =  0 Multiplicity = 1
 C                    -0.69363  -1.21018   0.07113 
 C                    -0.4631   -0.04416   0.84426 
 Cl                    0.74382   0.14835   2.07649 
 C                    -1.25173   1.09385   0.64238 
 C                    -2.2668    1.1212   -0.30555 
 C                    -2.51405  -0.00923  -1.07815 
 C                    -1.7358   -1.13789  -0.87733 
 N                    -0.13853  -2.54082  -0.02599 
 N                     0.78442  -3.10912   0.55392 
 C                     1.67729  -2.633     1.54017 
 C                     1.42076  -2.86332   2.89623 
 Cl                   -0.13745  -3.47222   3.37409 
 C                     2.37799  -2.5563    3.85776 
 C                     3.60859  -2.0322    3.46733 
 C                     3.88152  -1.82874   2.1147 
 C                     2.92758  -2.14304   1.153 
 H                    -1.04805   1.97234   1.2558 
 H                    -2.8604    2.02862  -0.43303 
 H                    -3.3064   -0.01496  -1.82817 
 H                    -1.90019  -2.0465   -1.45759 
 H                     2.14559  -2.72389   4.91042 
 H                     4.35715  -1.79078   4.22402 
 H                     4.84735  -1.42558   1.80427 
 H                     3.13088  -2.00152   0.09 
 
 ITRead=  0  0  0  0  0  0  0  0  0  0  0  0  0  0  0  0  0  0  0  0
 ITRead=  0  0  0  0
 MicOpt= -1 -1 -1 -1 -1 -1 -1 -1 -1 -1 -1 -1 -1 -1 -1 -1 -1 -1 -1 -1
 MicOpt= -1 -1 -1 -1
 NAtoms=     24 NQM=       24 NQMF=       0 NMMI=      0 NMMIF=      0
                NMic=       0 NMicF=      0.
                    Isotopes and Nuclear Properties:
 (Nuclear quadrupole moments (NQMom) in fm**2, nuclear magnetic moments (NMagM)
  in nuclear magnetons)

  Atom         1           2           3           4           5           6           7           8           9          10
 IAtWgt=          12          12          35          12          12          12          12          14          14          12
 AtmWgt=  12.0000000  12.0000000  34.9688527  12.0000000  12.0000000  12.0000000  12.0000000  14.0030740  14.0030740  12.0000000
 NucSpn=           0           0           3           0           0           0           0           2           2           0
 AtZEff=  -0.0000000  -0.0000000  -0.0000000  -0.0000000  -0.0000000  -0.0000000  -0.0000000  -0.0000000  -0.0000000  -0.0000000
 NQMom=    0.0000000   0.0000000  -8.1650000   0.0000000   0.0000000   0.0000000   0.0000000   2.0440000   2.0440000   0.0000000
 NMagM=    0.0000000   0.0000000   0.8218740   0.0000000   0.0000000   0.0000000   0.0000000   0.4037610   0.4037610   0.0000000
 AtZNuc=   6.0000000   6.0000000  17.0000000   6.0000000   6.0000000   6.0000000   6.0000000   7.0000000   7.0000000   6.0000000

  Atom        11          12          13          14          15          16          17          18          19          20
 IAtWgt=          12          35          12          12          12          12           1           1           1           1
 AtmWgt=  12.0000000  34.9688527  12.0000000  12.0000000  12.0000000  12.0000000   1.0078250   1.0078250   1.0078250   1.0078250
 NucSpn=           0           3           0           0           0           0           1           1           1           1
 AtZEff=  -0.0000000  -0.0000000  -0.0000000  -0.0000000  -0.0000000  -0.0000000  -0.0000000  -0.0000000  -0.0000000  -0.0000000
 NQMom=    0.0000000  -8.1650000   0.0000000   0.0000000   0.0000000   0.0000000   0.0000000   0.0000000   0.0000000   0.0000000
 NMagM=    0.0000000   0.8218740   0.0000000   0.0000000   0.0000000   0.0000000   2.7928460   2.7928460   2.7928460   2.7928460
 AtZNuc=   6.0000000  17.0000000   6.0000000   6.0000000   6.0000000   6.0000000   1.0000000   1.0000000   1.0000000   1.0000000

  Atom        21          22          23          24
 IAtWgt=           1           1           1           1
 AtmWgt=   1.0078250   1.0078250   1.0078250   1.0078250
 NucSpn=           1           1           1           1
 AtZEff=  -0.0000000  -0.0000000  -0.0000000  -0.0000000
 NQMom=    0.0000000   0.0000000   0.0000000   0.0000000
 NMagM=    2.7928460   2.7928460   2.7928460   2.7928460
 AtZNuc=   1.0000000   1.0000000   1.0000000   1.0000000
 Leave Link  101 at Fri Mar  6 17:31:51 2026, MaxMem=  2415919104 cpu:               0.1 elap:               0.1
 (Enter /prod/precompiled/gaussian/16c2/g16/l103.exe)

 GradGradGradGradGradGradGradGradGradGradGradGradGradGradGradGradGradGrad
 Berny optimization.
 Initialization pass.
 Trust Radius=3.00D-01 FncErr=1.00D-07 GrdErr=1.00D-07 EigMax=2.50D+02 EigMin=1.00D-04
 Number of steps in this run=      2 maximum allowed number of steps=      2.
 GradGradGradGradGradGradGradGradGradGradGradGradGradGradGradGradGradGrad

 Leave Link  103 at Fri Mar  6 17:31:51 2026, MaxMem=  2415919104 cpu:               0.1 elap:               0.0
 (Enter /prod/precompiled/gaussian/16c2/g16/l202.exe)
                          Input orientation:                          
 ---------------------------------------------------------------------
 Center     Atomic      Atomic             Coordinates (Angstroms)
 Number     Number       Type             X           Y           Z
 ---------------------------------------------------------------------
      1          6           0       -0.693632   -1.210176    0.071133
      2          6           0       -0.463101   -0.044163    0.844255
      3         17           0        0.743819    0.148345    2.076487
      4          6           0       -1.251727    1.093846    0.642381
      5          6           0       -2.266803    1.121195   -0.305552
      6          6           0       -2.514049   -0.009232   -1.078151
      7          6           0       -1.735798   -1.137887   -0.877329
      8          7           0       -0.138534   -2.540815   -0.025990
      9          7           0        0.784424   -3.109122    0.553917
     10          6           0        1.677289   -2.632996    1.540165
     11          6           0        1.420763   -2.863318    2.896228
     12         17           0       -0.137448   -3.472215    3.374085
     13          6           0        2.377986   -2.556298    3.857761
     14          6           0        3.608585   -2.032204    3.467329
     15          6           0        3.881516   -1.828735    2.114698
     16          6           0        2.927584   -2.143036    1.152996
     17          1           0       -1.048047    1.972343    1.255798
     18          1           0       -2.860396    2.028621   -0.433033
     19          1           0       -3.306395   -0.014957   -1.828170
     20          1           0       -1.900190   -2.046500   -1.457585
     21          1           0        2.145594   -2.723894    4.910415
     22          1           0        4.357150   -1.790779    4.224024
     23          1           0        4.847346   -1.425581    1.804271
     24          1           0        3.130875   -2.001523    0.089995
 ---------------------------------------------------------------------
                    Distance matrix (angstroms):
                    1          2          3          4          5
     1  C    0.000000
     2  C    1.417903   0.000000
     3  Cl   2.816610   1.735543   0.000000
     4  C    2.438506   1.399196   2.633028   0.000000
     5  C    2.837613   2.435869   3.960352   1.389138   0.000000
     6  C    2.465165   2.811272   4.537651   2.402180   1.391368
     7  C    1.410998   2.404130   4.065455   2.743078   2.390052
     8  N    1.445049   2.663821   3.525697   3.859622   4.244762
     9  N    2.454328   3.321835   3.595964   4.671047   5.286233
    10  C    3.131092   3.430396   2.982426   4.824365   5.749477
    11  C    3.896756   3.963227   3.193798   5.280263   6.302847
    12  Cl   4.041739   4.272895   3.945738   5.436243   6.258857
    13  C    5.058205   4.843946   3.627469   6.069352   7.240939
    14  C    5.542468   5.235595   3.859549   6.432352   7.661510
    15  C    5.048837   4.865637   3.708834   6.087642   7.236126
    16  C    3.892796   3.999667   3.297286   5.310817   6.305888
    17  H    3.414303   2.139585   2.685383   1.090653   2.155837
    18  H    3.929231   3.416858   4.777394   2.148985   1.091799
    19  H    3.444188   3.902183   5.628254   3.399224   2.165631
    20  H    2.119481   3.372395   4.929279   3.833032   3.390557
    21  H    5.811299   5.524482   4.271519   6.658306   7.839660
    22  H    6.564602   6.140711   4.629069   7.253188   8.536592
    23  H    5.809699   5.570529   4.403439   6.700462   7.845288
    24  H    3.905565   4.161350   3.777052   5.393852   6.248420
                    6          7          8          9         10
     6  C    0.000000
     7  C    1.385592   0.000000
     8  N    3.627537   2.290030   0.000000
     9  N    4.811745   3.505104   1.229275   0.000000
    10  C    5.595269   4.441710   2.399698   1.413007   0.000000
    11  C    6.278873   5.213513   3.327878   2.439625   1.399200
    12  Cl   6.120694   5.106695   3.525339   2.989152   2.713083
    13  C    7.401539   6.430878   4.627811   3.709507   2.422418
    14  C    7.889262   6.945379   5.148093   4.198048   2.793710
    15  C    7.376187   6.401852   4.609816   3.696946   2.415686
    16  C    6.256397   5.184561   3.308975   2.425975   1.397569
    17  H    3.394572   3.833636   4.778995   5.447190   5.358868
    18  H    2.165405   3.389527   5.334226   6.376142   6.798144
    19  H    1.091042   2.152172   4.434316   5.655351   6.560253
    20  H    2.161308   1.090550   2.323197   3.518872   4.704130
    21  H    8.058820   7.146930   5.442321   4.580421   3.403844
    22  H    8.860042   7.973336   6.231882   5.288864   3.885110
    23  H    8.031472   7.114178   5.427025   4.572202   3.402479
    24  H    6.099095   5.036476   3.315618   2.635874   2.148177
                   11         12         13         14         15
    11  C    0.000000
    12  Cl   1.739863   0.000000
    13  C    1.391073   2.720341   0.000000
    14  C    2.409040   4.014360   1.393372   0.000000
    15  C    2.781449   4.520968   2.414170   1.394812   0.000000
    16  C    2.414161   4.011779   2.790806   2.414991   1.390555
    17  H    5.671830   5.912659   6.246319   6.527748   6.283828
    18  H    7.303654   7.222727   8.177594   8.576179   8.174565
    19  H    7.264924   7.004164   8.432106   8.940276   8.396551
    20  H    5.536389   5.337130   6.842192   7.389288   6.799761
    21  H    2.145173   2.851767   1.090951   2.168242   3.410391
    22  H    3.396432   4.873503   2.153429   1.091432   2.162620
    23  H    3.873103   5.612593   3.404861   2.160621   1.091662
    24  H    3.397369   4.861082   3.882097   3.411090   2.166273
                   16         17         18         19         20
    16  C    0.000000
    17  H    5.722985   0.000000
    18  H    7.308825   2.477887   0.000000
    19  H    7.230392   4.308173   2.514266   0.000000
    20  H    5.489249   4.923382   4.310257   2.498382   0.000000
    21  H    3.881636   6.753533   8.729191   9.081357   7.574870
    22  H    3.405724   7.224099   9.400477   9.925347   8.455790
    23  H    2.150439   6.826593   8.737639   9.037034   7.520272
    24  H    1.091478   5.883375   7.239541   7.004588   5.263900
                   21         22         23         24
    21  H    0.000000
    22  H    2.496561   0.000000
    23  H    4.316620   2.495770   0.000000
    24  H    4.972831   4.317217   2.493336   0.000000
 Symmetry turned off by external request.
 Stoichiometry    C12H8Cl2N2
 Framework group  C1[X(C12H8Cl2N2)]
 Deg. of freedom    66
 Full point group                 C1      NOp   1
 Rotational constants (GHZ):           0.8032689           0.3126484           0.2872852
 Leave Link  202 at Fri Mar  6 17:31:51 2026, MaxMem=  2415919104 cpu:               0.1 elap:               0.0
 (Enter /prod/precompiled/gaussian/16c2/g16/l301.exe)
 Standard basis: def2SVP (5D, 7F)
 Ernie: Thresh=  0.10000D-02 Tol=  0.10000D-05 Strict=F.
   272 basis functions,   480 primitive gaussians,   288 cartesian basis functions
    64 alpha electrons       64 beta electrons
       nuclear repulsion energy      1253.3989829427 Hartrees.
 IExCor= 4639 DFT=T Ex+Corr=wB97XD ExCW=0 ScaHFX=  1.000000
 ScaDFX=  1.000000  1.000000  1.000000  1.000000 ScalE2=  1.000000  1.000000
 IRadAn=      5 IRanWt=     -1 IRanGd=            0 ICorTp=0 IEmpDi=121
 HFx  wShort=  0.000000 wLong=  0.200000 cFull=  0.222036 cShort=  0.000000 cLong=  0.777964
 DFx  wShort=  0.000000 wLong=  0.200000 cFull=  0.000000 cShort=  0.000000 cLong=  1.000000
 NAtoms=   24 NActive=   24 NUniq=   24 SFac= 1.00D+00 NAtFMM=   60 NAOKFM=F Big=F
 Integral buffers will be    131072 words long.
 Raffenetti 2 integral format.
 Two-electron integral symmetry is turned off.
 R6Disp:  Grimme-D2 Dispersion energy=       -0.0159487028 Hartrees.
 Nuclear repulsion after empirical dispersion term =     1253.3830342399 Hartrees.
 Leave Link  301 at Fri Mar  6 17:31:51 2026, MaxMem=  2415919104 cpu:               0.0 elap:               0.1
 (Enter /prod/precompiled/gaussian/16c2/g16/l302.exe)
 NPDir=0 NMtPBC=     1 NCelOv=     1 NCel=       1 NClECP=     1 NCelD=      1
         NCelK=      1 NCelE2=     1 NClLst=     1 CellRange=     0.0.
 One-electron integrals computed using PRISM.
   1 Symmetry operations used in ECPInt.
 ECPInt:  NShTT=    7750 NPrTT=   30142 LenC2=    7234 LenP2D=   19764.
 LDataN:  DoStor=T MaxTD1= 4 Len=   56
 NBasis=   272 RedAO= T EigKep=  2.16D-04  NBF=   272
 NBsUse=   272 1.00D-06 EigRej= -1.00D+00 NBFU=   272
 Precomputing XC quadrature grid using
 IXCGrd= 4 IRadAn=           5 IRanWt=          -1 IRanGd=           0 AccXCQ= 0.00D+00.
 Generated NRdTot=       0 NPtTot=           0 NUsed=           0 NTot=          32
 NSgBfM=   285   285   285   285   285 MxSgAt=    24 MxSgA2=    24.
 Leave Link  302 at Fri Mar  6 17:31:51 2026, MaxMem=  2415919104 cpu:               1.4 elap:               0.2
 (Enter /prod/precompiled/gaussian/16c2/g16/l303.exe)
 DipDrv:  MaxL=1.
 Leave Link  303 at Fri Mar  6 17:31:52 2026, MaxMem=  2415919104 cpu:               0.1 elap:               0.1
 (Enter /prod/precompiled/gaussian/16c2/g16/l401.exe)
 ExpMin= 1.22D-01 ExpMax= 1.04D+04 ExpMxC= 1.57D+03 IAcc=3 IRadAn=         5 AccDes= 0.00D+00
 Harris functional with IExCor= 4639 and IRadAn=       5 diagonalized for initial guess.
 HarFok:  IExCor= 4639 AccDes= 0.00D+00 IRadAn=         5 IDoV= 1 UseB2=F ITyADJ=14
 ICtDFT=  3500011 ScaDFX=  1.000000  1.000000  1.000000  1.000000
 FoFCou: FMM=F IPFlag=           0 FMFlag=      100000 FMFlg1=           0
         NFxFlg=           0 DoJE=T BraDBF=F KetDBF=T FulRan=T
         wScrn=  0.000000 ICntrl=       500 IOpCl=  0 I1Cent=   200000004 NGrid=           0
         NMat0=    1 NMatS0=      1 NMatT0=    0 NMatD0=    1 NMtDS0=    0 NMtDT0=    0
 Symmetry not used in FoFCou.
 Harris En= -1450.78636146659    
 JPrj=0 DoOrth=F DoCkMO=F.
 Leave Link  401 at Fri Mar  6 17:31:52 2026, MaxMem=  2415919104 cpu:               5.7 elap:               0.6
 (Enter /prod/precompiled/gaussian/16c2/g16/l502.exe)
 Two-electron integral symmetry not used.
 Closed shell SCF:
 Using DIIS extrapolation, IDIIS=  1040.
 NGot=  2415919104 LenX=  2415746906 LenY=  2415663521
 Requested convergence on RMS density matrix=1.00D-08 within 200 cycles.
 Requested convergence on MAX density matrix=1.00D-06.
 Requested convergence on             energy=1.00D-06.
 No special actions if energy rises.
 Fock matrices will be formed incrementally for  20 cycles.
 Integral accuracy reduced to 1.0D-05 until final iterations.

 Cycle   1  Pass 0  IDiag  1:
 FoFJK:  IHMeth= 1 ICntrl=       0 DoSepK=T KAlg= 0 I1Cent=           0 FoldK=F
 IRaf=         1 NMat=       1 IRICut=       1 DoRegI=T DoRafI=F ISym2E= 0 IDoP0=0 IntGTp=1.
 FoFCou: FMM=F IPFlag=           0 FMFlag=      100000 FMFlg1=           0
         NFxFlg=           0 DoJE=T BraDBF=F KetDBF=F FulRan=T
         wScrn=  0.000000 ICntrl=       500 IOpCl=  0 I1Cent=           0 NGrid=           0
         NMat0=    1 NMatS0=      1 NMatT0=    0 NMatD0=    1 NMtDS0=    0 NMtDT0=    0
 Symmetry not used in FoFCou.
 E= -1490.57195824221    
 DIIS: error= 3.43D-02 at cycle   1 NSaved=   1.
 NSaved= 1 IEnMin= 1 EnMin= -1490.57195824221     IErMin= 1 ErrMin= 3.43D-02
 ErrMax= 3.43D-02  0.00D+00 EMaxC= 1.00D-01 BMatC= 7.30D-01 BMatP= 7.30D-01
 IDIUse=3 WtCom= 6.57D-01 WtEn= 3.43D-01
 Coeff-Com:  0.100D+01
 Coeff-En:   0.100D+01
 Coeff:      0.100D+01
 Gap=     0.345 Goal=   None    Shift=    0.000
 GapD=    0.345 DampG=1.000 DampE=0.500 DampFc=0.5000 IDamp=-1.
 Damping current iteration by 5.00D-01
 RMSDP=6.79D-03 MaxDP=2.82D-01              OVMax= 2.30D-01

 Cycle   2  Pass 0  IDiag  1:
 RMSU=  3.34D-03    CP:  9.76D-01
 E= -1490.78289617622     Delta-E=       -0.210937934009 Rises=F Damp=T
 DIIS: error= 1.27D-02 at cycle   2 NSaved=   2.
 NSaved= 2 IEnMin= 2 EnMin= -1490.78289617622     IErMin= 2 ErrMin= 1.27D-02
 ErrMax= 1.27D-02  0.00D+00 EMaxC= 1.00D-01 BMatC= 9.29D-02 BMatP= 7.30D-01
 IDIUse=3 WtCom= 8.73D-01 WtEn= 1.27D-01
 Coeff-Com: -0.243D+00 0.124D+01
 Coeff-En:   0.000D+00 0.100D+01
 Coeff:     -0.212D+00 0.121D+01
 Gap=     0.377 Goal=   None    Shift=    0.000
 RMSDP=2.39D-03 MaxDP=8.69D-02 DE=-2.11D-01 OVMax= 1.87D-01

 Cycle   3  Pass 0  IDiag  1:
 RMSU=  2.25D-03    CP:  9.57D-01  1.18D+00
 E= -1490.96662681295     Delta-E=       -0.183730636726 Rises=F Damp=F
 DIIS: error= 8.10D-03 at cycle   3 NSaved=   3.
 NSaved= 3 IEnMin= 3 EnMin= -1490.96662681295     IErMin= 3 ErrMin= 8.10D-03
 ErrMax= 8.10D-03  0.00D+00 EMaxC= 1.00D-01 BMatC= 3.47D-02 BMatP= 9.29D-02
 IDIUse=3 WtCom= 9.19D-01 WtEn= 8.10D-02
 Coeff-Com: -0.189D+00 0.541D+00 0.648D+00
 Coeff-En:   0.000D+00 0.000D+00 0.100D+01
 Coeff:     -0.173D+00 0.497D+00 0.677D+00
 Gap=     0.287 Goal=   None    Shift=    0.000
 RMSDP=1.12D-03 MaxDP=3.56D-02 DE=-1.84D-01 OVMax= 7.33D-02

 Cycle   4  Pass 0  IDiag  1:
 RMSU=  8.36D-04    CP:  9.51D-01  1.35D+00  7.79D-01
 E= -1490.99913525713     Delta-E=       -0.032508444177 Rises=F Damp=F
 DIIS: error= 3.09D-03 at cycle   4 NSaved=   4.
 NSaved= 4 IEnMin= 4 EnMin= -1490.99913525713     IErMin= 4 ErrMin= 3.09D-03
 ErrMax= 3.09D-03  0.00D+00 EMaxC= 1.00D-01 BMatC= 5.32D-03 BMatP= 3.47D-02
 IDIUse=3 WtCom= 9.69D-01 WtEn= 3.09D-02
 Coeff-Com: -0.680D-01 0.153D+00 0.343D+00 0.572D+00
 Coeff-En:   0.000D+00 0.000D+00 0.294D-01 0.971D+00
 Coeff:     -0.659D-01 0.148D+00 0.334D+00 0.584D+00
 Gap=     0.264 Goal=   None    Shift=    0.000
 RMSDP=3.47D-04 MaxDP=1.17D-02 DE=-3.25D-02 OVMax= 2.14D-02

 Cycle   5  Pass 0  IDiag  1:
 RMSU=  2.17D-04    CP:  9.50D-01  1.35D+00  8.69D-01  7.93D-01
 E= -1491.00389875664     Delta-E=       -0.004763499510 Rises=F Damp=F
 DIIS: error= 1.13D-03 at cycle   5 NSaved=   5.
 NSaved= 5 IEnMin= 5 EnMin= -1491.00389875664     IErMin= 5 ErrMin= 1.13D-03
 ErrMax= 1.13D-03  0.00D+00 EMaxC= 1.00D-01 BMatC= 4.80D-04 BMatP= 5.32D-03
 IDIUse=3 WtCom= 9.89D-01 WtEn= 1.13D-02
 Coeff-Com: -0.162D-01 0.259D-01 0.112D+00 0.301D+00 0.577D+00
 Coeff-En:   0.000D+00 0.000D+00 0.000D+00 0.000D+00 0.100D+01
 Coeff:     -0.160D-01 0.256D-01 0.110D+00 0.298D+00 0.582D+00
 Gap=     0.266 Goal=   None    Shift=    0.000
 RMSDP=1.04D-04 MaxDP=4.21D-03 DE=-4.76D-03 OVMax= 6.12D-03

 Cycle   6  Pass 0  IDiag  1:
 RMSU=  7.96D-05    CP:  9.50D-01  1.36D+00  8.80D-01  8.34D-01  7.77D-01
 E= -1491.00439126097     Delta-E=       -0.000492504333 Rises=F Damp=F
 DIIS: error= 3.33D-04 at cycle   6 NSaved=   6.
 NSaved= 6 IEnMin= 6 EnMin= -1491.00439126097     IErMin= 6 ErrMin= 3.33D-04
 ErrMax= 3.33D-04  0.00D+00 EMaxC= 1.00D-01 BMatC= 3.17D-05 BMatP= 4.80D-04
 IDIUse=3 WtCom= 9.97D-01 WtEn= 3.33D-03
 Coeff-Com:  0.928D-02-0.224D-01-0.349D-01-0.317D-01 0.145D+00 0.935D+00
 Coeff-En:   0.000D+00 0.000D+00 0.000D+00 0.000D+00 0.000D+00 0.100D+01
 Coeff:      0.925D-02-0.224D-01-0.348D-01-0.316D-01 0.144D+00 0.935D+00
 Gap=     0.267 Goal=   None    Shift=    0.000
 RMSDP=6.68D-05 MaxDP=1.16D-03 DE=-4.93D-04 OVMax= 4.87D-03

 Cycle   7  Pass 0  IDiag  1:
 RMSU=  3.68D-05    CP:  9.49D-01  1.36D+00  8.87D-01  8.80D-01  9.21D-01
                    CP:  1.23D+00
 E= -1491.00446884827     Delta-E=       -0.000077587297 Rises=F Damp=F
 DIIS: error= 2.19D-04 at cycle   7 NSaved=   7.
 NSaved= 7 IEnMin= 7 EnMin= -1491.00446884827     IErMin= 7 ErrMin= 2.19D-04
 ErrMax= 2.19D-04  0.00D+00 EMaxC= 1.00D-01 BMatC= 8.26D-06 BMatP= 3.17D-05
 IDIUse=3 WtCom= 9.98D-01 WtEn= 2.19D-03
 Coeff-Com:  0.674D-02-0.137D-01-0.337D-01-0.649D-01-0.312D-01 0.441D+00
 Coeff-Com:  0.696D+00
 Coeff-En:   0.000D+00 0.000D+00 0.000D+00 0.000D+00 0.000D+00 0.000D+00
 Coeff-En:   0.100D+01
 Coeff:      0.672D-02-0.137D-01-0.336D-01-0.648D-01-0.311D-01 0.440D+00
 Coeff:      0.697D+00
 Gap=     0.267 Goal=   None    Shift=    0.000
 RMSDP=2.41D-05 MaxDP=4.69D-04 DE=-7.76D-05 OVMax= 1.84D-03

 Cycle   8  Pass 0  IDiag  1:
 RMSU=  1.53D-05    CP:  9.49D-01  1.36D+00  8.91D-01  8.87D-01  9.63D-01
                    CP:  1.38D+00  9.29D-01
 E= -1491.00448439983     Delta-E=       -0.000015551559 Rises=F Damp=F
 DIIS: error= 5.48D-05 at cycle   8 NSaved=   8.
 NSaved= 8 IEnMin= 8 EnMin= -1491.00448439983     IErMin= 8 ErrMin= 5.48D-05
 ErrMax= 5.48D-05  0.00D+00 EMaxC= 1.00D-01 BMatC= 7.56D-07 BMatP= 8.26D-06
 IDIUse=1 WtCom= 1.00D+00 WtEn= 0.00D+00
 Coeff-Com:  0.699D-03-0.906D-03-0.562D-02-0.158D-01-0.295D-01 0.268D-01
 Coeff-Com:  0.220D+00 0.804D+00
 Coeff:      0.699D-03-0.906D-03-0.562D-02-0.158D-01-0.295D-01 0.268D-01
 Coeff:      0.220D+00 0.804D+00
 Gap=     0.267 Goal=   None    Shift=    0.000
 RMSDP=8.54D-06 MaxDP=2.15D-04 DE=-1.56D-05 OVMax= 8.57D-04

 Initial convergence to 1.0D-05 achieved.  Increase integral accuracy.
 Cycle   9  Pass 1  IDiag  1:
 E= -1491.00440866337     Delta-E=        0.000075736460 Rises=F Damp=F
 DIIS: error= 1.14D-04 at cycle   1 NSaved=   1.
 NSaved= 1 IEnMin= 1 EnMin= -1491.00440866337     IErMin= 1 ErrMin= 1.14D-04
 ErrMax= 1.14D-04  0.00D+00 EMaxC= 1.00D-01 BMatC= 1.33D-06 BMatP= 1.33D-06
 IDIUse=3 WtCom= 9.99D-01 WtEn= 1.14D-03
 Coeff-Com:  0.100D+01
 Coeff-En:   0.100D+01
 Coeff:      0.100D+01
 Gap=     0.267 Goal=   None    Shift=    0.000
 RMSDP=8.54D-06 MaxDP=2.15D-04 DE= 7.57D-05 OVMax= 4.69D-04

 Cycle  10  Pass 1  IDiag  1:
 RMSU=  8.74D-05    CP:  1.00D+00
 E= -1491.00441017853     Delta-E=       -0.000001515165 Rises=F Damp=F
 DIIS: error= 1.45D-05 at cycle   2 NSaved=   2.
 NSaved= 2 IEnMin= 2 EnMin= -1491.00441017853     IErMin= 2 ErrMin= 1.45D-05
 ErrMax= 1.45D-05  0.00D+00 EMaxC= 1.00D-01 BMatC= 1.14D-07 BMatP= 1.33D-06
 IDIUse=1 WtCom= 1.00D+00 WtEn= 0.00D+00
 Coeff-Com:  0.811D-01 0.919D+00
 Coeff:      0.811D-01 0.919D+00
 Gap=     0.267 Goal=   None    Shift=    0.000
 RMSDP=5.68D-06 MaxDP=1.12D-04 DE=-1.52D-06 OVMax= 2.52D-04

 Cycle  11  Pass 1  IDiag  1:
 RMSU=  3.30D-06    CP:  1.00D+00  1.05D+00
 E= -1491.00441031315     Delta-E=       -0.000000134624 Rises=F Damp=F
 DIIS: error= 1.80D-05 at cycle   3 NSaved=   3.
 NSaved= 3 IEnMin= 3 EnMin= -1491.00441031315     IErMin= 2 ErrMin= 1.45D-05
 ErrMax= 1.80D-05  0.00D+00 EMaxC= 1.00D-01 BMatC= 1.11D-07 BMatP= 1.14D-07
 IDIUse=1 WtCom= 1.00D+00 WtEn= 0.00D+00
 Coeff-Com: -0.355D-01 0.503D+00 0.532D+00
 Coeff:     -0.355D-01 0.503D+00 0.532D+00
 Gap=     0.267 Goal=   None    Shift=    0.000
 RMSDP=1.70D-06 MaxDP=6.06D-05 DE=-1.35D-07 OVMax= 1.24D-04

 Cycle  12  Pass 1  IDiag  1:
 RMSU=  1.43D-06    CP:  1.00D+00  1.06D+00  8.41D-01
 E= -1491.00441044012     Delta-E=       -0.000000126965 Rises=F Damp=F
 DIIS: error= 3.77D-06 at cycle   4 NSaved=   4.
 NSaved= 4 IEnMin= 4 EnMin= -1491.00441044012     IErMin= 4 ErrMin= 3.77D-06
 ErrMax= 3.77D-06  0.00D+00 EMaxC= 1.00D-01 BMatC= 6.14D-09 BMatP= 1.11D-07
 IDIUse=1 WtCom= 1.00D+00 WtEn= 0.00D+00
 Coeff-Com: -0.169D-01 0.419D-01 0.119D+00 0.856D+00
 Coeff:     -0.169D-01 0.419D-01 0.119D+00 0.856D+00
 Gap=     0.267 Goal=   None    Shift=    0.000
 RMSDP=8.74D-07 MaxDP=2.64D-05 DE=-1.27D-07 OVMax= 1.16D-04

 Cycle  13  Pass 1  IDiag  1:
 RMSU=  5.88D-07    CP:  1.00D+00  1.06D+00  9.75D-01  1.32D+00
 E= -1491.00441046677     Delta-E=       -0.000000026650 Rises=F Damp=F
 DIIS: error= 3.04D-06 at cycle   5 NSaved=   5.
 NSaved= 5 IEnMin= 5 EnMin= -1491.00441046677     IErMin= 5 ErrMin= 3.04D-06
 ErrMax= 3.04D-06  0.00D+00 EMaxC= 1.00D-01 BMatC= 3.06D-09 BMatP= 6.14D-09
 IDIUse=1 WtCom= 1.00D+00 WtEn= 0.00D+00
 Coeff-Com:  0.752D-02-0.193D+00-0.186D+00 0.405D+00 0.966D+00
 Coeff:      0.752D-02-0.193D+00-0.186D+00 0.405D+00 0.966D+00
 Gap=     0.267 Goal=   None    Shift=    0.000
 RMSDP=8.93D-07 MaxDP=1.65D-05 DE=-2.67D-08 OVMax= 1.29D-04

 Cycle  14  Pass 1  IDiag  1:
 RMSU=  3.86D-07    CP:  1.00D+00  1.06D+00  1.11D+00  1.75D+00  1.44D+00
 E= -1491.00441048179     Delta-E=       -0.000000015019 Rises=F Damp=F
 DIIS: error= 1.01D-06 at cycle   6 NSaved=   6.
 NSaved= 6 IEnMin= 6 EnMin= -1491.00441048179     IErMin= 6 ErrMin= 1.01D-06
 ErrMax= 1.01D-06  0.00D+00 EMaxC= 1.00D-01 BMatC= 7.34D-10 BMatP= 3.06D-09
 IDIUse=1 WtCom= 1.00D+00 WtEn= 0.00D+00
 Coeff-Com:  0.743D-02-0.108D+00-0.121D+00 0.253D-01 0.499D+00 0.698D+00
 Coeff:      0.743D-02-0.108D+00-0.121D+00 0.253D-01 0.499D+00 0.698D+00
 Gap=     0.267 Goal=   None    Shift=    0.000
 RMSDP=3.50D-07 MaxDP=7.85D-06 DE=-1.50D-08 OVMax= 5.00D-05

 Cycle  15  Pass 1  IDiag  1:
 RMSU=  1.70D-07    CP:  1.00D+00  1.06D+00  1.14D+00  1.92D+00  1.71D+00
                    CP:  1.13D+00
 E= -1491.00441048423     Delta-E=       -0.000000002438 Rises=F Damp=F
 DIIS: error= 5.41D-07 at cycle   7 NSaved=   7.
 NSaved= 7 IEnMin= 7 EnMin= -1491.00441048423     IErMin= 7 ErrMin= 5.41D-07
 ErrMax= 5.41D-07  0.00D+00 EMaxC= 1.00D-01 BMatC= 7.81D-11 BMatP= 7.34D-10
 IDIUse=1 WtCom= 1.00D+00 WtEn= 0.00D+00
 Coeff-Com:  0.644D-03 0.348D-02 0.376D-02-0.603D-01-0.455D-01 0.157D+00
 Coeff-Com:  0.941D+00
 Coeff:      0.644D-03 0.348D-02 0.376D-02-0.603D-01-0.455D-01 0.157D+00
 Coeff:      0.941D+00
 Gap=     0.267 Goal=   None    Shift=    0.000
 RMSDP=1.62D-07 MaxDP=4.00D-06 DE=-2.44D-09 OVMax= 2.45D-05

 Cycle  16  Pass 1  IDiag  1:
 RMSU=  7.54D-08    CP:  1.00D+00  1.06D+00  1.16D+00  1.96D+00  1.85D+00
                    CP:  1.33D+00  1.18D+00
 E= -1491.00441048467     Delta-E=       -0.000000000440 Rises=F Damp=F
 DIIS: error= 2.56D-07 at cycle   8 NSaved=   8.
 NSaved= 8 IEnMin= 8 EnMin= -1491.00441048467     IErMin= 8 ErrMin= 2.56D-07
 ErrMax= 2.56D-07  0.00D+00 EMaxC= 1.00D-01 BMatC= 2.70D-11 BMatP= 7.81D-11
 IDIUse=1 WtCom= 1.00D+00 WtEn= 0.00D+00
 Coeff-Com: -0.163D-02 0.292D-01 0.345D-01-0.293D-01-0.145D+00-0.121D+00
 Coeff-Com:  0.375D+00 0.858D+00
 Coeff:     -0.163D-02 0.292D-01 0.345D-01-0.293D-01-0.145D+00-0.121D+00
 Coeff:      0.375D+00 0.858D+00
 Gap=     0.267 Goal=   None    Shift=    0.000
 RMSDP=8.48D-08 MaxDP=2.15D-06 DE=-4.40D-10 OVMax= 1.25D-05

 Cycle  17  Pass 1  IDiag  1:
 RMSU=  3.86D-08    CP:  1.00D+00  1.06D+00  1.16D+00  1.98D+00  1.90D+00
                    CP:  1.43D+00  1.42D+00  1.38D+00
 E= -1491.00441048482     Delta-E=       -0.000000000149 Rises=F Damp=F
 DIIS: error= 1.21D-07 at cycle   9 NSaved=   9.
 NSaved= 9 IEnMin= 9 EnMin= -1491.00441048482     IErMin= 9 ErrMin= 1.21D-07
 ErrMax= 1.21D-07  0.00D+00 EMaxC= 1.00D-01 BMatC= 4.33D-12 BMatP= 2.70D-11
 IDIUse=1 WtCom= 1.00D+00 WtEn= 0.00D+00
 Coeff-Com: -0.397D-03 0.317D-02 0.464D-02 0.103D-01-0.102D-01-0.592D-01
 Coeff-Com: -0.168D+00 0.105D+00 0.111D+01
 Coeff:     -0.397D-03 0.317D-02 0.464D-02 0.103D-01-0.102D-01-0.592D-01
 Coeff:     -0.168D+00 0.105D+00 0.111D+01
 Gap=     0.267 Goal=   None    Shift=    0.000
 RMSDP=5.07D-08 MaxDP=1.17D-06 DE=-1.49D-10 OVMax= 7.32D-06

 Cycle  18  Pass 1  IDiag  1:
 RMSU=  1.62D-08    CP:  1.00D+00  1.06D+00  1.17D+00  1.99D+00  1.92D+00
                    CP:  1.47D+00  1.54D+00  1.77D+00  1.44D+00
 E= -1491.00441048482     Delta-E=       -0.000000000001 Rises=F Damp=F
 DIIS: error= 5.24D-08 at cycle  10 NSaved=  10.
 NSaved=10 IEnMin=10 EnMin= -1491.00441048482     IErMin=10 ErrMin= 5.24D-08
 ErrMax= 5.24D-08  0.00D+00 EMaxC= 1.00D-01 BMatC= 9.72D-13 BMatP= 4.33D-12
 IDIUse=1 WtCom= 1.00D+00 WtEn= 0.00D+00
 Coeff-Com:  0.202D-03-0.513D-02-0.584D-02 0.102D-01 0.277D-01 0.374D-02
 Coeff-Com: -0.140D+00-0.160D+00 0.389D+00 0.880D+00
 Coeff:      0.202D-03-0.513D-02-0.584D-02 0.102D-01 0.277D-01 0.374D-02
 Coeff:     -0.140D+00-0.160D+00 0.389D+00 0.880D+00
 Gap=     0.267 Goal=   None    Shift=    0.000
 RMSDP=2.06D-08 MaxDP=4.38D-07 DE=-1.36D-12 OVMax= 2.87D-06

 Cycle  19  Pass 1  IDiag  1:
 RMSU=  6.01D-09    CP:  1.00D+00  1.06D+00  1.17D+00  1.99D+00  1.93D+00
                    CP:  1.48D+00  1.58D+00  1.93D+00  1.68D+00  1.16D+00
 E= -1491.00441048485     Delta-E=       -0.000000000030 Rises=F Damp=F
 DIIS: error= 1.61D-08 at cycle  11 NSaved=  11.
 NSaved=11 IEnMin=11 EnMin= -1491.00441048485     IErMin=11 ErrMin= 1.61D-08
 ErrMax= 1.61D-08  0.00D+00 EMaxC= 1.00D-01 BMatC= 7.95D-14 BMatP= 9.72D-13
 IDIUse=1 WtCom= 1.00D+00 WtEn= 0.00D+00
 Coeff-Com:  0.913D-04-0.154D-02-0.197D-02 0.158D-02 0.748D-02 0.672D-02
 Coeff-Com: -0.162D-01-0.425D-01-0.321D-01 0.190D+00 0.889D+00
 Coeff:      0.913D-04-0.154D-02-0.197D-02 0.158D-02 0.748D-02 0.672D-02
 Coeff:     -0.162D-01-0.425D-01-0.321D-01 0.190D+00 0.889D+00
 Gap=     0.267 Goal=   None    Shift=    0.000
 RMSDP=4.59D-09 MaxDP=8.95D-08 DE=-3.05D-11 OVMax= 5.40D-07

 SCF Done:  E(RwB97XD) =  -1491.00441048     A.U. after   19 cycles
            NFock= 19  Conv=0.46D-08     -V/T= 2.0052
 KE= 1.483225637746D+03 PE=-6.017285728183D+03 EE= 1.789672645713D+03
 Leave Link  502 at Fri Mar  6 17:32:11 2026, MaxMem=  2415919104 cpu:             204.4 elap:              19.2
 (Enter /prod/precompiled/gaussian/16c2/g16/l508.exe)
 QCSCF skips out because SCF is already converged.
 Leave Link  508 at Fri Mar  6 17:32:12 2026, MaxMem=  2415919104 cpu:               0.1 elap:               0.0
 (Enter /prod/precompiled/gaussian/16c2/g16/l801.exe)
 DoSCS=F DFT=T ScalE2(SS,OS)=  1.000000  1.000000
 Range of M.O.s used for correlation:     1   272
 NBasis=   272 NAE=    64 NBE=    64 NFC=     0 NFV=     0
 NROrb=    272 NOA=    64 NOB=    64 NVA=   208 NVB=   208

 **** Warning!!: The largest alpha MO coefficient is  0.16801704D+02

 Leave Link  801 at Fri Mar  6 17:32:12 2026, MaxMem=  2415919104 cpu:               0.1 elap:               0.1
 (Enter /prod/precompiled/gaussian/16c2/g16/l1101.exe)
 Using compressed storage, NAtomX=    24.
 Will process     25 centers per pass.
   1 Symmetry operations used in ECPInt.
 ECPInt:  NShTT=    7750 NPrTT=   30142 LenC2=    7234 LenP2D=   19764.
 LDataN:  DoStor=T MaxTD1= 5 Len=  102
 R6Disp: Adding Grimme-D2 dispersion energy 1st derivatives to the gradient.
 Leave Link 1101 at Fri Mar  6 17:32:12 2026, MaxMem=  2415919104 cpu:               1.2 elap:               0.3
 (Enter /prod/precompiled/gaussian/16c2/g16/l1102.exe)
 Symmetrizing basis deriv contribution to polar:
 IMax=3 JMax=2 DiffMx= 0.00D+00
 Leave Link 1102 at Fri Mar  6 17:32:13 2026, MaxMem=  2415919104 cpu:               0.1 elap:               0.1
 (Enter /prod/precompiled/gaussian/16c2/g16/l1110.exe)
 Forming Gx(P) for the SCF density, NAtomX=    24.
 Integral derivatives from FoFJK, PRISM(SPDF).
 Do as many integral derivatives as possible in FoFJK.
 G2DrvN: MDV=    2415916544.
 G2DrvN: will do    25 centers at a time, making    1 passes.
 Calling FoFCou, ICntrl=  3107 FMM=F I1Cent=   0 AccDes= 0.00D+00.
 FoFJK:  IHMeth= 1 ICntrl=    3107 DoSepK=T KAlg= 0 I1Cent=           0 FoldK=F
 IRaf=         1 NMat=       1 IRICut=       1 DoRegI=T DoRafI=F ISym2E= 0 IDoP0=0 IntGTp=1.
 FoFCou: FMM=F IPFlag=           0 FMFlag=      100000 FMFlg1=           0
         NFxFlg=           0 DoJE=F BraDBF=F KetDBF=F FulRan=T
         wScrn=  0.000000 ICntrl=      3507 IOpCl=  0 I1Cent=           0 NGrid=           0
         NMat0=    1 NMatS0=      1 NMatT0=    0 NMatD0=    1 NMtDS0=    0 NMtDT0=    0
 Symmetry not used in FoFCou.
 End of G2Drv F.D. properties file   721 does not exist.
 End of G2Drv F.D. properties file   722 does not exist.
 End of G2Drv F.D. properties file   788 does not exist.
 Leave Link 1110 at Fri Mar  6 17:32:32 2026, MaxMem=  2415919104 cpu:             220.4 elap:              18.8
 (Enter /prod/precompiled/gaussian/16c2/g16/l1002.exe)
 Minotr:  Closed shell wavefunction.
          IDoAtm=111111111111111111111111
          Direct CPHF calculation.
          Differentiating once with respect to electric field.
                with respect to dipole field.
          Differentiating once with respect to nuclear coordinates.
          Requested convergence is 1.0D-08 RMS, and 1.0D-07 maximum.
          Secondary convergence is 1.0D-12 RMS, and 1.0D-12 maximum.
          NewPWx=T KeepS1=F KeepF1=F KeepIn=T MapXYZ=F SortEE=F KeepMc=T.
         7195 words used for storage of precomputed grid.
 Keep R1 ints in memory in canonical form, NReq=1402150885.
 FoFCou: FMM=F IPFlag=           0 FMFlag=           0 FMFlg1=           0
         NFxFlg=           0 DoJE=F BraDBF=F KetDBF=F FulRan=T
         wScrn=  0.000000 ICntrl=       600 IOpCl=  0 I1Cent=           0 NGrid=           0
         NMat0=    1 NMatS0=  37128 NMatT0=    0 NMatD0=    1 NMtDS0=    0 NMtDT0=    0
 Symmetry not used in FoFCou.
 Two-electron integral symmetry not used.
          MDV=    2415919104 using IRadAn=       1.
          Solving linear equations simultaneously, MaxMat=       0.
          There are    75 degrees of freedom in the 1st order CPHF.  IDoFFX=6 NUNeed=     3.
     72 vectors produced by pass  0 Test12= 1.77D-14 1.33D-09 XBig12= 9.95D+01 4.00D+00.
 AX will form    72 AO Fock derivatives at one time.
     72 vectors produced by pass  1 Test12= 1.77D-14 1.33D-09 XBig12= 8.60D+00 6.56D-01.
     72 vectors produced by pass  2 Test12= 1.77D-14 1.33D-09 XBig12= 3.70D-01 8.55D-02.
     72 vectors produced by pass  3 Test12= 1.77D-14 1.33D-09 XBig12= 5.94D-03 7.63D-03.
     72 vectors produced by pass  4 Test12= 1.77D-14 1.33D-09 XBig12= 6.53D-05 8.30D-04.
     72 vectors produced by pass  5 Test12= 1.77D-14 1.33D-09 XBig12= 3.84D-07 5.28D-05.
     69 vectors produced by pass  6 Test12= 1.77D-14 1.33D-09 XBig12= 2.37D-09 4.78D-06.
     43 vectors produced by pass  7 Test12= 1.77D-14 1.33D-09 XBig12= 1.19D-11 4.25D-07.
      3 vectors produced by pass  8 Test12= 1.77D-14 1.33D-09 XBig12= 5.89D-14 2.79D-08.
      2 vectors produced by pass  9 Test12= 1.77D-14 1.33D-09 XBig12= 3.12D-16 1.90D-09.
 InvSVY:  IOpt=1 It=  1 EMax= 5.33D-15
 Solved reduced A of dimension   549 with    75 vectors.
 FullF1:  Do perturbations      1 to       3.
 Isotropic polarizability for W=    0.000000      159.46 Bohr**3.
 End of Minotr F.D. properties file   721 does not exist.
 End of Minotr F.D. properties file   722 does not exist.
 End of Minotr F.D. properties file   788 does not exist.
 Leave Link 1002 at Fri Mar  6 17:33:04 2026, MaxMem=  2415919104 cpu:             355.9 elap:              32.6
 (Enter /prod/precompiled/gaussian/16c2/g16/l601.exe)
 Copying SCF densities to generalized density rwf, IOpCl= 0 IROHF=0.

 **********************************************************************

            Population analysis using the SCF Density.

 **********************************************************************

 Alpha  occ. eigenvalues -- -101.69063-101.67714 -14.51341 -14.50611 -10.38652
 Alpha  occ. eigenvalues --  -10.36218 -10.36131 -10.35005 -10.33235 -10.32927
 Alpha  occ. eigenvalues --  -10.32577 -10.32345 -10.31757 -10.31529 -10.31422
 Alpha  occ. eigenvalues --  -10.31228  -9.59820  -9.58496  -7.35219  -7.34233
 Alpha  occ. eigenvalues --   -7.34179  -7.33887  -7.32902  -7.32878  -1.14304
 Alpha  occ. eigenvalues --   -1.00807  -0.99674  -0.95320  -0.93722  -0.90638
 Alpha  occ. eigenvalues --   -0.86619  -0.84306  -0.83359  -0.78108  -0.73505
 Alpha  occ. eigenvalues --   -0.71958  -0.70740  -0.66814  -0.64926  -0.60222
 Alpha  occ. eigenvalues --   -0.58910  -0.58451  -0.57894  -0.54903  -0.53720
 Alpha  occ. eigenvalues --   -0.52843  -0.52389  -0.51959  -0.51679  -0.48309
 Alpha  occ. eigenvalues --   -0.48060  -0.46710  -0.46167  -0.45055  -0.44597
 Alpha  occ. eigenvalues --   -0.43468  -0.41875  -0.40323  -0.39312  -0.35256
 Alpha  occ. eigenvalues --   -0.34556  -0.33770  -0.32571  -0.28864
 Alpha virt. eigenvalues --   -0.02129   0.03709   0.04876   0.05128   0.08385
 Alpha virt. eigenvalues --    0.10479   0.11691   0.15308   0.16451   0.17942
 Alpha virt. eigenvalues --    0.18457   0.21103   0.21313   0.21601   0.21965
 Alpha virt. eigenvalues --    0.22591   0.22789   0.25219   0.31097   0.32750
 Alpha virt. eigenvalues --    0.33324   0.34669   0.35332   0.36239   0.36377
 Alpha virt. eigenvalues --    0.37539   0.38819   0.39284   0.41341   0.45054
 Alpha virt. eigenvalues --    0.45611   0.46787   0.47573   0.49989   0.50477
 Alpha virt. eigenvalues --    0.50918   0.51544   0.53067   0.53547   0.54351
 Alpha virt. eigenvalues --    0.54626   0.55563   0.56134   0.57130   0.57999
 Alpha virt. eigenvalues --    0.58968   0.60194   0.60498   0.61091   0.63286
 Alpha virt. eigenvalues --    0.63427   0.65308   0.67029   0.67827   0.68156
 Alpha virt. eigenvalues --    0.68310   0.69793   0.70409   0.71922   0.72277
 Alpha virt. eigenvalues --    0.73572   0.73905   0.74205   0.74906   0.75572
 Alpha virt. eigenvalues --    0.76098   0.77888   0.78259   0.78905   0.79165
 Alpha virt. eigenvalues --    0.80098   0.80485   0.81026   0.81972   0.82669
 Alpha virt. eigenvalues --    0.84708   0.86406   0.86701   0.87057   0.88037
 Alpha virt. eigenvalues --    0.88305   0.88900   0.89689   0.91108   0.91301
 Alpha virt. eigenvalues --    0.92876   0.93643   0.94979   0.96902   1.00203
 Alpha virt. eigenvalues --    1.00423   1.02556   1.04038   1.06394   1.08351
 Alpha virt. eigenvalues --    1.10161   1.11273   1.12701   1.13488   1.19342
 Alpha virt. eigenvalues --    1.21398   1.24621   1.25283   1.26093   1.27661
 Alpha virt. eigenvalues --    1.29842   1.30881   1.31039   1.32951   1.33489
 Alpha virt. eigenvalues --    1.34281   1.35271   1.35721   1.35943   1.37549
 Alpha virt. eigenvalues --    1.39447   1.43660   1.44565   1.47855   1.48447
 Alpha virt. eigenvalues --    1.56402   1.57733   1.58396   1.59718   1.62060
 Alpha virt. eigenvalues --    1.69840   1.73884   1.74437   1.76975   1.77448
 Alpha virt. eigenvalues --    1.78504   1.78819   1.81874   1.82879   1.83552
 Alpha virt. eigenvalues --    1.83885   1.84526   1.85227   1.86091   1.86947
 Alpha virt. eigenvalues --    1.87325   1.88057   1.90412   1.91355   1.92513
 Alpha virt. eigenvalues --    1.97679   1.98304   2.00767   2.01336   2.02160
 Alpha virt. eigenvalues --    2.02899   2.03658   2.04229   2.07601   2.08801
 Alpha virt. eigenvalues --    2.10372   2.13982   2.16847   2.17350   2.20432
 Alpha virt. eigenvalues --    2.21913   2.22560   2.24494   2.28654   2.30119
 Alpha virt. eigenvalues --    2.31429   2.31820   2.32480   2.34210   2.34735
 Alpha virt. eigenvalues --    2.36057   2.38165   2.38990   2.39717   2.41402
 Alpha virt. eigenvalues --    2.44772   2.47587   2.52618   2.57094   2.57568
 Alpha virt. eigenvalues --    2.61705   2.63377   2.68315   2.68525   2.69962
 Alpha virt. eigenvalues --    2.70698   2.72184   2.77820   2.79098   2.80519
 Alpha virt. eigenvalues --    2.82172   2.88735   2.89702   2.90165   2.91352
 Alpha virt. eigenvalues --    2.91955   2.96739   3.04329   3.08180   3.11197
 Alpha virt. eigenvalues --    3.13411   3.16710   3.24157   3.31374   3.43219
 Alpha virt. eigenvalues --    3.59488   3.67029   3.71647
          Condensed to atoms (all electrons):
               1          2          3          4          5          6
     1  C    5.260390   0.129304  -0.048634   0.084205  -0.138520   0.079146
     2  C    0.129304   5.377488   0.259706   0.342404   0.085862  -0.139267
     3  Cl  -0.048634   0.259706  16.919048  -0.068288   0.003105   0.000622
     4  C    0.084205   0.342404  -0.068288   4.970336   0.310671   0.069787
     5  C   -0.138520   0.085862   0.003105   0.310671   5.061081   0.251398
     6  C    0.079146  -0.139267   0.000622   0.069787   0.251398   5.151473
     7  C    0.371123   0.019738   0.001824  -0.099495   0.085570   0.250093
     8  N    0.333002  -0.062476  -0.000857   0.002444  -0.000523   0.010176
     9  N   -0.047966  -0.005792  -0.002712  -0.000303   0.000023  -0.000340
    10  C   -0.016348  -0.000003  -0.029284   0.000041  -0.000004   0.000034
    11  C    0.001055  -0.000657   0.003034   0.000102  -0.000000   0.000004
    12  Cl   0.002211   0.001052   0.000116  -0.000050   0.000001  -0.000003
    13  C   -0.000055   0.000143  -0.001662  -0.000001  -0.000000   0.000000
    14  C   -0.000042   0.000022   0.002163  -0.000001  -0.000000   0.000000
    15  C   -0.000001   0.000131  -0.002859  -0.000005   0.000000   0.000000
    16  C    0.001799  -0.000129   0.008712   0.000025   0.000002   0.000001
    17  H    0.016474  -0.065026   0.002480   0.440824  -0.057058   0.013451
    18  H   -0.001475   0.013275  -0.000141  -0.058551   0.443723  -0.063097
    19  H    0.012556  -0.001859   0.000007   0.012642  -0.065945   0.451499
    20  H   -0.060012   0.021885  -0.000057  -0.002908   0.012859  -0.070808
    21  H    0.000005  -0.000004  -0.000012  -0.000000   0.000000  -0.000000
    22  H    0.000000   0.000000  -0.000020  -0.000000  -0.000000   0.000000
    23  H    0.000004  -0.000000  -0.000064  -0.000000   0.000000  -0.000000
    24  H    0.000605  -0.000229   0.000229   0.000016   0.000000  -0.000001
               7          8          9         10         11         12
     1  C    0.371123   0.333002  -0.047966  -0.016348   0.001055   0.002211
     2  C    0.019738  -0.062476  -0.005792  -0.000003  -0.000657   0.001052
     3  Cl   0.001824  -0.000857  -0.002712  -0.029284   0.003034   0.000116
     4  C   -0.099495   0.002444  -0.000303   0.000041   0.000102  -0.000050
     5  C    0.085570  -0.000523   0.000023  -0.000004  -0.000000   0.000001
     6  C    0.250093   0.010176  -0.000340   0.000034   0.000004  -0.000003
     7  C    5.064790  -0.089254   0.008828   0.000076  -0.000150  -0.000179
     8  N   -0.089254   6.600651   0.335813  -0.037133  -0.002034  -0.000274
     9  N    0.008828   0.335813   6.634416   0.297211  -0.082271   0.002258
    10  C    0.000076  -0.037133   0.297211   5.251424   0.241588  -0.072467
    11  C   -0.000150  -0.002034  -0.082271   0.241588   5.209540   0.259882
    12  Cl  -0.000179  -0.000274   0.002258  -0.072467   0.259882  16.935141
    13  C   -0.000003  -0.000264   0.004636   0.077524   0.356944  -0.050068
    14  C    0.000000   0.000025  -0.000100  -0.142769   0.085944   0.002690
    15  C   -0.000002  -0.000157   0.006837   0.101203  -0.153172   0.000605
    16  C   -0.000138  -0.003048  -0.065386   0.322847   0.074166   0.002396
    17  H   -0.002540  -0.000040   0.000006   0.000029  -0.000004  -0.000001
    18  H    0.011751   0.000008  -0.000000   0.000000   0.000000   0.000000
    19  H   -0.061965  -0.000147   0.000003   0.000000  -0.000000   0.000000
    20  H    0.436076   0.012267  -0.000370   0.000158  -0.000012   0.000010
    21  H    0.000000  -0.000000  -0.000079   0.017003  -0.065731   0.001507
    22  H   -0.000000  -0.000000   0.000007  -0.001704   0.013993  -0.000107
    23  H    0.000000  -0.000000  -0.000104   0.013959  -0.001473   0.000007
    24  H   -0.000069   0.001232  -0.006180  -0.068330   0.017306  -0.000087
              13         14         15         16         17         18
     1  C   -0.000055  -0.000042  -0.000001   0.001799   0.016474  -0.001475
     2  C    0.000143   0.000022   0.000131  -0.000129  -0.065026   0.013275
     3  Cl  -0.001662   0.002163  -0.002859   0.008712   0.002480  -0.000141
     4  C   -0.000001  -0.000001  -0.000005   0.000025   0.440824  -0.058551
     5  C   -0.000000  -0.000000   0.000000   0.000002  -0.057058   0.443723
     6  C    0.000000   0.000000   0.000000   0.000001   0.013451  -0.063097
     7  C   -0.000003   0.000000  -0.000002  -0.000138  -0.002540   0.011751
     8  N   -0.000264   0.000025  -0.000157  -0.003048  -0.000040   0.000008
     9  N    0.004636  -0.000100   0.006837  -0.065386   0.000006  -0.000000
    10  C    0.077524  -0.142769   0.101203   0.322847   0.000029   0.000000
    11  C    0.356944   0.085944  -0.153172   0.074166  -0.000004   0.000000
    12  Cl  -0.050068   0.002690   0.000605   0.002396  -0.000001   0.000000
    13  C    4.974973   0.306859   0.078192  -0.114107   0.000001   0.000000
    14  C    0.306859   5.066008   0.293819   0.069094  -0.000000   0.000000
    15  C    0.078192   0.293819   5.053684   0.303372   0.000000  -0.000000
    16  C   -0.114107   0.069094   0.303372   5.016800  -0.000005   0.000000
    17  H    0.000001  -0.000000   0.000000  -0.000005   0.635036  -0.011303
    18  H    0.000000   0.000000  -0.000000   0.000000  -0.011303   0.637234
    19  H   -0.000000   0.000000  -0.000000  -0.000000  -0.000203  -0.010021
    20  H    0.000000   0.000000   0.000000  -0.000014   0.000020  -0.000193
    21  H    0.441232  -0.060107   0.012493  -0.001961  -0.000000  -0.000000
    22  H   -0.062157   0.446355  -0.064819   0.012602   0.000000  -0.000000
    23  H    0.012384  -0.064621   0.444618  -0.061645  -0.000000  -0.000000
    24  H   -0.002357   0.012933  -0.065013   0.449569  -0.000001   0.000000
              19         20         21         22         23         24
     1  C    0.012556  -0.060012   0.000005   0.000000   0.000004   0.000605
     2  C   -0.001859   0.021885  -0.000004   0.000000  -0.000000  -0.000229
     3  Cl   0.000007  -0.000057  -0.000012  -0.000020  -0.000064   0.000229
     4  C    0.012642  -0.002908  -0.000000  -0.000000  -0.000000   0.000016
     5  C   -0.065945   0.012859   0.000000  -0.000000   0.000000   0.000000
     6  C    0.451499  -0.070808  -0.000000   0.000000  -0.000000  -0.000001
     7  C   -0.061965   0.436076   0.000000  -0.000000   0.000000  -0.000069
     8  N   -0.000147   0.012267  -0.000000  -0.000000  -0.000000   0.001232
     9  N    0.000003  -0.000370  -0.000079   0.000007  -0.000104  -0.006180
    10  C    0.000000   0.000158   0.017003  -0.001704   0.013959  -0.068330
    11  C   -0.000000  -0.000012  -0.065731   0.013993  -0.001473   0.017306
    12  Cl   0.000000   0.000010   0.001507  -0.000107   0.000007  -0.000087
    13  C   -0.000000   0.000000   0.441232  -0.062157   0.012384  -0.002357
    14  C    0.000000   0.000000  -0.060107   0.446355  -0.064621   0.012933
    15  C   -0.000000   0.000000   0.012493  -0.064819   0.444618  -0.065013
    16  C   -0.000000  -0.000014  -0.001961   0.012602  -0.061645   0.449569
    17  H   -0.000203   0.000020  -0.000000   0.000000  -0.000000  -0.000001
    18  H   -0.010021  -0.000193  -0.000000  -0.000000  -0.000000   0.000000
    19  H    0.638336  -0.010697   0.000000   0.000000   0.000000   0.000000
    20  H   -0.010697   0.624392  -0.000000   0.000000  -0.000000  -0.000014
    21  H    0.000000  -0.000000   0.644596  -0.011325  -0.000189   0.000018
    22  H    0.000000   0.000000  -0.011325   0.649459  -0.010793  -0.000201
    23  H    0.000000  -0.000000  -0.000189  -0.010793   0.650359  -0.010895
    24  H    0.000000  -0.000014   0.000018  -0.000201  -0.010895   0.653867
 Mulliken charges:
               1
     1  C    0.021175
     2  C    0.024433
     3  Cl  -0.046456
     4  C   -0.003894
     5  C    0.007755
     6  C   -0.004168
     7  C    0.003926
     8  N   -0.099411
     9  N   -0.078435
    10  C    0.044947
    11  C    0.041948
    12  Cl  -0.084641
    13  C   -0.022214
    14  C   -0.018272
    15  C   -0.008926
    16  C   -0.014950
    17  H    0.027861
    18  H    0.038791
    19  H    0.035794
    20  H    0.037418
    21  H    0.022555
    22  H    0.028708
    23  H    0.028454
    24  H    0.017603
 Sum of Mulliken charges =  -0.00000
 Mulliken charges with hydrogens summed into heavy atoms:
               1
     1  C    0.021175
     2  C    0.024433
     3  Cl  -0.046456
     4  C    0.023966
     5  C    0.046546
     6  C    0.031626
     7  C    0.041344
     8  N   -0.099411
     9  N   -0.078435
    10  C    0.044947
    11  C    0.041948
    12  Cl  -0.084641
    13  C    0.000341
    14  C    0.010436
    15  C    0.019528
    16  C    0.002653
 APT charges:
               1
     1  C   -0.123073
     2  C    0.336661
     3  Cl  -0.252657
     4  C   -0.213192
     5  C    0.073046
     6  C   -0.081330
     7  C    0.008096
     8  N    0.217695
     9  N   -0.378988
    10  C    0.237522
    11  C    0.243830
    12  Cl  -0.272579
    13  C   -0.046617
    14  C   -0.079565
    15  C    0.006162
    16  C   -0.104606
    17  H    0.058779
    18  H    0.046343
    19  H    0.046439
    20  H    0.086476
    21  H    0.059316
    22  H    0.038022
    23  H    0.036596
    24  H    0.057625
 Sum of APT charges =   0.00000
 APT charges with hydrogens summed into heavy atoms:
               1
     1  C   -0.123073
     2  C    0.336661
     3  Cl  -0.252657
     4  C   -0.154413
     5  C    0.119389
     6  C   -0.034892
     7  C    0.094573
     8  N    0.217695
     9  N   -0.378988
    10  C    0.237522
    11  C    0.243830
    12  Cl  -0.272579
    13  C    0.012699
    14  C   -0.041543
    15  C    0.042758
    16  C   -0.046981
 Electronic spatial extent (au):  <R**2>=           6157.5805
 Charge=             -0.0000 electrons
 Dipole moment (field-independent basis, Debye):
    X=             -0.1605    Y=              3.4935    Z=             -0.4673  Tot=              3.5283
 Quadrupole moment (field-independent basis, Debye-Ang):
   XX=            -91.7131   YY=           -116.8510   ZZ=            -99.9829
   XY=             -2.7072   XZ=              7.3646   YZ=              1.8014
 Traceless Quadrupole moment (field-independent basis, Debye-Ang):
   XX=             11.1359   YY=            -14.0020   ZZ=              2.8661
   XY=             -2.7072   XZ=              7.3646   YZ=              1.8014
 Octapole moment (field-independent basis, Debye-Ang**2):
  XXX=           -129.2306  YYY=            528.4014  ZZZ=           -425.7143  XYY=            -70.7060
  XXY=            150.5486  XXZ=           -141.9683  XZZ=            -29.8165  YZZ=            143.9463
  YYZ=           -161.1288  XYZ=             -7.0112
 Hexadecapole moment (field-independent basis, Debye-Ang**3):
 XXXX=          -2278.3330 YYYY=          -3150.1043 ZZZZ=          -2764.2262 XXXY=            617.1232
 XXXZ=           -699.1035 YYYX=            713.8542 YYYZ=           1101.7716 ZZZX=           -681.5963
 ZZZY=            970.9879 XXYY=           -909.6122 XXZZ=           -791.6507 YYZZ=           -982.3250
 XXYZ=            324.9688 YYXZ=           -290.0682 ZZXY=            177.3667
 N-N= 1.253383034240D+03 E-N=-6.017285730131D+03  KE= 1.483225637746D+03
  Exact polarizability:     187.464     -17.425     135.478      49.663     -11.269     155.441
 Approx polarizability:     205.820      -3.757     165.172      41.930       2.691     184.935
 No NMR shielding tensors so no spin-rotation constants.
 Leave Link  601 at Fri Mar  6 17:33:05 2026, MaxMem=  2415919104 cpu:               1.0 elap:               0.3
 (Enter /prod/precompiled/gaussian/16c2/g16/l701.exe)
 ... and contract with generalized density number  0.
 Compute integral second derivatives.
 R6Disp: Adding Grimme-D2 dispersion energy 2nd derivatives to the Hessian.
   1 Symmetry operations used in ECPInt.
 ECPInt:  NShTT=    7750 NPrTT=   30142 LenC2=    7234 LenP2D=   19764.
 LDataN:  DoStor=T MaxTD1= 6 Len=  172
 Leave Link  701 at Fri Mar  6 17:33:05 2026, MaxMem=  2415919104 cpu:               1.2 elap:               0.3
 (Enter /prod/precompiled/gaussian/16c2/g16/l702.exe)
 L702 exits ... SP integral derivatives will be done elsewhere.
 Leave Link  702 at Fri Mar  6 17:33:06 2026, MaxMem=  2415919104 cpu:               0.1 elap:               0.1
 (Enter /prod/precompiled/gaussian/16c2/g16/l703.exe)
 Integral derivatives from FoFJK, PRISM(SPDF).
 Compute integral second derivatives, UseDBF=F ICtDFT=           0.
 Calling FoFJK, ICntrl=    100127 FMM=F ISym2X=0 I1Cent= 0 IOpClX= 0 NMat=1 NMatS=1 NMatT=0.
 FoFJK:  IHMeth= 1 ICntrl=  100127 DoSepK=T KAlg= 0 I1Cent=           0 FoldK=F
 IRaf=         1 NMat=       1 IRICut=       1 DoRegI=T DoRafI=F ISym2E= 0 IDoP0=0 IntGTp=1.
 FoFCou: FMM=F IPFlag=           0 FMFlag=      100000 FMFlg1=         800
         NFxFlg=           0 DoJE=F BraDBF=F KetDBF=F FulRan=T
         wScrn=  0.000000 ICntrl=    100527 IOpCl=  0 I1Cent=           0 NGrid=           0
         NMat0=    1 NMatS0=      1 NMatT0=    0 NMatD0=    1 NMtDS0=    0 NMtDT0=    0
 Symmetry not used in FoFCou.
 Leave Link  703 at Fri Mar  6 17:33:45 2026, MaxMem=  2415919104 cpu:             460.6 elap:              38.8
 (Enter /prod/precompiled/gaussian/16c2/g16/l716.exe)
 Dipole        =-6.31487068D-02 1.37445153D+00-1.83860857D-01
 Polarizability= 1.87464194D+02-1.74249076D+01 1.35477678D+02
                 4.96628309D+01-1.12688418D+01 1.55440801D+02
 Full mass-weighted force constant matrix:
 Low frequencies ---  -46.0334   -6.6354   -4.1550   -0.0027   -0.0016    0.0013
 Low frequencies ---    5.2596   47.4634   68.7270
 ******    1 imaginary frequencies (negative Signs) ****** 
 Diagonal vibrational polarizability:
       14.4604908      12.1293566      18.3852748
 Harmonic frequencies (cm**-1), IR intensities (KM/Mole), Raman scattering
 activities (A**4/AMU), depolarization ratios for plane and unpolarized
 incident light, reduced masses (AMU), force constants (mDyne/A),
 and normal coordinates:
                           1         2         3         4         5
                           A         A         A         A         A
       Frequencies ---   -46.0322   47.4594   68.7222   94.9871  156.9457
    Reduced masses ---     8.3565   12.1464    6.1554    5.0854    4.7401
   Force constants ---     0.0104    0.0161    0.0171    0.0270    0.0688
    IR Intensities ---     1.4555    0.1550    0.7415    0.0140    0.1665
 Coord Atom Element:
   1     1     6          0.01299   0.00749   0.04099   0.10179   0.02853
   2     1     6         -0.02239  -0.03425  -0.06709   0.05273  -0.04023
   3     1     6          0.02334  -0.01074   0.04119  -0.12482  -0.04032
   1     2     6          0.03138  -0.09238   0.07965  -0.01222   0.06047
   2     2     6         -0.00929  -0.08199  -0.08633  -0.01383  -0.05663
   3     2     6         -0.00152   0.08807   0.06845   0.00977  -0.02568
   1     3    17          0.17201  -0.18278   0.06708   0.07308   0.05178
   2     3    17          0.06815  -0.13301  -0.10232   0.01781  -0.07442
   3     3    17         -0.15146   0.18290   0.08641  -0.07900  -0.01311
   1     4     6         -0.04867  -0.12376   0.11512  -0.16738   0.07324
   2     4     6         -0.05066  -0.09934  -0.05757  -0.08966  -0.04587
   3     4     6          0.07852   0.11610   0.08701   0.18805  -0.00216
   1     5     6         -0.14799  -0.04577   0.11851  -0.13802   0.03792
   2     5     6         -0.10443  -0.06698   0.00129  -0.06244  -0.03252
   3     5     6          0.18318   0.03320   0.08735   0.15781   0.03762
   1     6     6         -0.16767   0.06389   0.08017   0.07416  -0.00692
   2     6     6         -0.11752  -0.01617   0.02584   0.05407  -0.02590
   3     6     6          0.20885  -0.07668   0.06529  -0.08064   0.04230
   1     7     6         -0.08283   0.08212   0.04032   0.17397  -0.00055
   2     7     6         -0.07416  -0.00586  -0.00459   0.10144  -0.02905
   3     7     6          0.12457  -0.08987   0.04531  -0.20068  -0.00544
   1     8     7          0.11924   0.04815  -0.01503   0.05847   0.01817
   2     8     7          0.03016  -0.01198  -0.09171   0.03087  -0.03599
   3     8     7         -0.08545  -0.03222  -0.01322  -0.09374  -0.04773
   1     9     7          0.14420   0.08453  -0.00700  -0.06070  -0.00751
   2     9     7          0.04252   0.01685  -0.12533  -0.03554  -0.01416
   3     9     7         -0.11228  -0.06325  -0.05575   0.03177   0.01022
   1    10     6          0.06037   0.08798  -0.01832  -0.06021  -0.03675
   2    10     6          0.00145   0.00207  -0.07846  -0.03800   0.03613
   3    10     6         -0.01546  -0.05847  -0.06843   0.03324   0.01072
   1    11     6         -0.06065   0.04327  -0.05845  -0.02377   0.01585
   2    11     6          0.03976   0.09458   0.04628  -0.01216  -0.08447
   3    11     6         -0.03330  -0.05074  -0.05698   0.04408  -0.00022
   1    12    17         -0.11464  -0.06608  -0.04877  -0.00159  -0.06083
   2    12    17          0.09594   0.37914   0.02459  -0.01115   0.11951
   3    12    17         -0.13481  -0.04475  -0.05384   0.11987   0.01950
   1    13     6         -0.12104   0.07061  -0.12402  -0.00070   0.07464
   2    13     6          0.01472   0.00700   0.23776   0.02725  -0.22405
   3    13     6          0.03797  -0.05142  -0.05409   0.01029  -0.01535
   1    14     6         -0.07040   0.13308  -0.15384  -0.01312   0.01710
   2    14     6         -0.03958  -0.14070   0.29917   0.02322  -0.08398
   3    14     6          0.13033  -0.05445  -0.06741  -0.03286  -0.01172
   1    15     6          0.04977   0.15916  -0.10263  -0.04562  -0.11281
   2    15     6         -0.07883  -0.18990   0.14273  -0.01532   0.23273
   3    15     6          0.14743  -0.05604  -0.08074  -0.04494   0.00980
   1    16     6          0.11869   0.13742  -0.03559  -0.07139  -0.12633
   2    16     6         -0.06765  -0.12422  -0.05248  -0.04051   0.26210
   3    16     6          0.07890  -0.05745  -0.08291  -0.00890   0.01424
   1    17     1         -0.02628  -0.20851   0.14429  -0.29289   0.09961
   2    17     1         -0.03678  -0.13830  -0.07755  -0.16109  -0.05260
   3    17     1          0.05123   0.20006   0.10561   0.33203  -0.00161
   1    18     1         -0.20435  -0.07215   0.15199  -0.26367   0.04065
   2    18     1         -0.13340  -0.08119   0.02575  -0.12435  -0.02661
   3    18     1          0.23930   0.05480   0.10609   0.30224   0.06773
   1    19     1         -0.23902   0.12716   0.08120   0.13110  -0.04169
   2    19     1         -0.15693   0.01187   0.06690   0.09187  -0.01445
   3    19     1          0.28452  -0.14372   0.06393  -0.14108   0.07901
   1    20     1         -0.07645   0.15372   0.00657   0.27828  -0.02296
   2    20     1         -0.07409   0.02563   0.01373   0.16140  -0.02248
   3    20     1          0.12274  -0.15959   0.02645  -0.32429  -0.00946
   1    21     1         -0.21150   0.03847  -0.15628   0.02575   0.14543
   2    21     1          0.03891   0.07068   0.35561   0.05806  -0.38497
   3    21     1          0.02187  -0.04833  -0.04258   0.02105  -0.02518
   1    22     1         -0.12323   0.15490  -0.21138   0.00260   0.05562
   2    22     1         -0.05457  -0.20689   0.46539   0.04981  -0.17181
   3    22     1          0.18739  -0.05496  -0.06340  -0.05692  -0.02182
   1    23     1          0.09139   0.20138  -0.12060  -0.05514  -0.19141
   2    23     1         -0.12458  -0.29274   0.18161  -0.02084   0.42959
   3    23     1          0.21759  -0.05843  -0.08573  -0.08150   0.02092
   1    24     1          0.21136   0.16796  -0.00944  -0.10258  -0.20973
   2    24     1         -0.10597  -0.18838  -0.15939  -0.06338   0.46782
   3    24     1          0.09162  -0.06018  -0.09208  -0.01800   0.02560
                           6         7         8         9        10
                           A         A         A         A         A
       Frequencies ---   170.1767  185.1046  239.5757  273.0761  324.3142
    Reduced masses ---    10.6439    8.9913    7.7457    5.7609    6.5067
   Force constants ---     0.1816    0.1815    0.2619    0.2531    0.4032
    IR Intensities ---     1.4978    1.2061    0.1154    0.4215    0.2436
 Coord Atom Element:
   1     1     6          0.03677   0.20943  -0.15713  -0.02725   0.01003
   2     1     6         -0.06659   0.05341  -0.08965  -0.09148   0.08627
   3     1     6          0.18401  -0.08736   0.16636  -0.03727   0.11610
   1     2     6         -0.01425   0.16832  -0.15573   0.04046  -0.08822
   2     2     6         -0.01763   0.08235  -0.08598  -0.13352   0.08357
   3     2     6          0.16037  -0.08653   0.17401   0.01563   0.12338
   1     3    17          0.06772  -0.08893   0.03386   0.03356   0.06495
   2     3    17          0.32621   0.18488   0.08185  -0.00209  -0.11050
   3     3    17          0.06815   0.18382  -0.02660   0.02941  -0.01129
   1     4     6         -0.10977   0.12677  -0.09458   0.07331  -0.10919
   2     4     6         -0.09035   0.04592  -0.05529  -0.11700   0.05663
   3     4     6          0.09515  -0.15551   0.09789   0.03571   0.02316
   1     5     6          0.01563  -0.03127   0.11772   0.08844   0.02475
   2     5     6         -0.11491  -0.08305   0.06149  -0.03975  -0.02355
   3     5     6         -0.03997   0.01019  -0.12500   0.03083  -0.14835
   1     6     6          0.19216  -0.11239   0.10520   0.01984   0.03072
   2     6     6         -0.09354  -0.16379   0.05955  -0.00241  -0.10230
   3     6     6         -0.11854   0.16231  -0.11509   0.00100  -0.03692
   1     7     6          0.15432   0.07891  -0.10059  -0.03724   0.01009
   2     7     6         -0.07894  -0.04534  -0.04306  -0.04189  -0.07404
   3     7     6          0.05336   0.04579   0.10406  -0.02296   0.12667
   1     8     7         -0.11704   0.21101   0.05782  -0.01894   0.20899
   2     8     7         -0.14030   0.05314   0.01438  -0.05659   0.20485
   3     8     7          0.22289  -0.22901  -0.13635  -0.09155  -0.04312
   1     9     7         -0.06659   0.05449   0.18259   0.01236   0.06926
   2     9     7         -0.14505  -0.07933   0.03726   0.08606   0.11245
   3     9     7          0.11669  -0.12083  -0.30844  -0.01505   0.06415
   1    10     6         -0.01014  -0.06689   0.01051  -0.11125  -0.04776
   2    10     6         -0.00913  -0.08003  -0.05215   0.26912   0.00931
   3    10     6         -0.02167  -0.02033  -0.09805   0.00703   0.16118
   1    11     6         -0.01134  -0.06830  -0.04612  -0.12563  -0.03022
   2    11     6         -0.00982  -0.03824  -0.06355   0.27638   0.00534
   3    11     6         -0.03179  -0.01578  -0.10039   0.00641   0.15198
   1    12    17         -0.06586  -0.04341   0.00635   0.00915  -0.12548
   2    12    17          0.00855  -0.01630   0.00509  -0.06680  -0.04865
   3    12    17         -0.18373   0.12380   0.19935   0.02188  -0.05326
   1    13     6          0.01939  -0.02507  -0.04659  -0.08386   0.08746
   2    13     6         -0.08873  -0.02134  -0.08764   0.18043   0.05823
   3    13     6         -0.04597  -0.05971  -0.08456  -0.00660   0.04047
   1    14     6          0.01683  -0.02966  -0.06457   0.05496   0.06927
   2    14     6         -0.10076  -0.04681  -0.01176  -0.16323   0.02474
   3    14     6         -0.09148  -0.10164   0.00784  -0.02948  -0.14100
   1    15     6         -0.03848  -0.05794  -0.02505   0.05184  -0.00902
   2    15     6          0.01384  -0.04983   0.05399  -0.13874  -0.00600
   3    15     6         -0.08589  -0.10677   0.02614  -0.02604  -0.16499
   1    16     6         -0.06697  -0.08814   0.03831  -0.08872  -0.11284
   2    16     6          0.06257  -0.06176  -0.01561   0.21144  -0.01293
   3    16     6         -0.07543  -0.06045  -0.00308   0.00346  -0.02430
   1    17     1         -0.22476   0.13315  -0.08654   0.10536  -0.18158
   2    17     1         -0.07163   0.09765  -0.05134  -0.13694   0.11512
   3    17     1          0.10631  -0.23198   0.08935   0.05189  -0.03367
   1    18     1         -0.00320  -0.11005   0.30326   0.14761   0.09108
   2    18     1         -0.13557  -0.12907   0.15649   0.00138  -0.00768
   3    18     1         -0.09809   0.05031  -0.31228   0.05186  -0.34974
   1    19     1          0.32987  -0.27318   0.27653   0.02159   0.09889
   2    19     1         -0.11018  -0.30092   0.14499   0.06519  -0.15675
   3    19     1         -0.26337   0.33360  -0.29666  -0.00107  -0.10801
   1    20     1          0.22543   0.10431  -0.08630  -0.06702   0.10526
   2    20     1         -0.10671  -0.07122  -0.03093  -0.02289  -0.12547
   3    20     1          0.07958   0.08163   0.08149  -0.04453   0.18396
   1    21     1          0.06946   0.01071  -0.08286  -0.08259   0.24842
   2    21     1         -0.13436   0.00392  -0.13944   0.18568   0.12267
   3    21     1         -0.04232  -0.04781  -0.10108  -0.00564   0.08752
   1    22     1          0.06227  -0.00803  -0.11644   0.16235   0.14596
   2    22     1         -0.17130  -0.05305  -0.00193  -0.44380   0.02781
   3    22     1         -0.11361  -0.12110   0.05555  -0.04621  -0.21710
   1    23     1         -0.05181  -0.06484  -0.04275   0.15413  -0.02572
   2    23     1          0.04559  -0.05831   0.12767  -0.39715  -0.03894
   3    23     1         -0.08593  -0.13779   0.06752  -0.04312  -0.25784
   1    24     1         -0.11352  -0.12478   0.08409  -0.10466  -0.28439
   2    24     1          0.10615  -0.11051  -0.01455   0.23668  -0.07694
   3    24     1         -0.07820  -0.07427   0.00534   0.00379  -0.06487
                          11        12        13        14        15
                           A         A         A         A         A
       Frequencies ---   356.2749  402.2756  415.1736  459.9073  467.9559
    Reduced masses ---     6.4242    8.9359    6.4054    4.3579    3.6994
   Force constants ---     0.4804    0.8520    0.6505    0.5431    0.4773
    IR Intensities ---     0.7373    7.6073    1.3474    6.8928    0.3690
 Coord Atom Element:
   1     1     6          0.03717  -0.10031   0.09176   0.02409   0.15727
   2     1     6          0.13453   0.04582   0.07168  -0.01127   0.06664
   3     1     6          0.09351  -0.11220  -0.00342   0.07895  -0.15064
   1     2     6          0.06302   0.06193  -0.05070  -0.03272   0.10486
   2     2     6          0.17845  -0.08148   0.07448   0.02298   0.03984
   3     2     6          0.01380   0.06526   0.05127   0.02581  -0.11254
   1     3    17          0.10540   0.18276   0.01524  -0.05094  -0.03842
   2     3    17         -0.11366   0.03080  -0.03333  -0.02642  -0.00225
   3     3    17          0.05833   0.18476  -0.00935  -0.06056  -0.01662
   1     4     6         -0.04471  -0.01321  -0.12206   0.03061  -0.10847
   2     4     6          0.09867  -0.16134   0.04528   0.06106  -0.07028
   3     4     6         -0.08719  -0.03260   0.05551   0.00299   0.15787
   1     5     6         -0.13142   0.02205   0.02228   0.00969   0.11131
   2     5     6         -0.13386  -0.13337   0.05582  -0.00362   0.02986
   3     5     6         -0.04619  -0.11464  -0.11528   0.03846  -0.06090
   1     6     6          0.00797  -0.15141  -0.00059   0.07500   0.05503
   2     6     6         -0.14426  -0.06207  -0.02690  -0.03642  -0.00206
   3     6     6         -0.07196  -0.15639   0.01645   0.06664   0.00206
   1     7     6          0.13929  -0.15519  -0.01771   0.10137  -0.10210
   2     7     6         -0.01652  -0.03701  -0.01729  -0.01208  -0.08037
   3     7     6         -0.00434  -0.10308   0.12502   0.03597   0.13590
   1     8     7         -0.13793  -0.10269   0.08077   0.03252   0.01279
   2     8     7          0.08102   0.13613   0.03047  -0.00058   0.01691
   3     8     7          0.19221  -0.15651  -0.11110  -0.00062   0.02222
   1     9     7         -0.00509  -0.18252  -0.11629   0.01946  -0.05314
   2     9     7          0.06924   0.19643  -0.19316  -0.00693   0.01707
   3     9     7         -0.06071   0.01888  -0.00482  -0.00518   0.11140
   1    10     6          0.04208  -0.11813  -0.05108  -0.08591   0.03706
   2    10     6          0.06027   0.09805  -0.14575   0.11606   0.08215
   3    10     6         -0.14477   0.01508  -0.04390   0.00855  -0.03949
   1    11     6         -0.07691   0.06012   0.06867  -0.10488  -0.03298
   2    11     6          0.02543  -0.01495  -0.02237   0.28333   0.02278
   3    11     6         -0.16668   0.02396  -0.03160   0.01501  -0.05836
   1    12    17          0.00640   0.10407   0.19984   0.09924  -0.02772
   2    12    17         -0.00964   0.04741   0.08339   0.01439  -0.01386
   3    12    17          0.09381  -0.05040  -0.05934  -0.02423   0.03002
   1    13     6         -0.14690   0.06553  -0.11808   0.00150  -0.02754
   2    13     6         -0.00185  -0.13993   0.11736  -0.15717  -0.06608
   3    13     6         -0.12361   0.05827   0.08346   0.02535  -0.06418
   1    14     6         -0.09641  -0.05775  -0.04473  -0.07977  -0.05092
   2    14     6         -0.07038   0.13395  -0.13044  -0.02900   0.02405
   3    14     6         -0.01002   0.07759   0.08930   0.00229  -0.01912
   1    15     6          0.01690  -0.08293  -0.13636  -0.15597   0.04129
   2    15     6         -0.00648  -0.02735  -0.11005   0.08263   0.02205
   3    15     6          0.02504   0.04583   0.07286   0.00095   0.00049
   1    16     6          0.06380  -0.01164  -0.16430  -0.01540   0.09016
   2    16     6          0.09572  -0.18462   0.10957  -0.17938  -0.01391
   3    16     6         -0.06058   0.02085   0.01326  -0.03838  -0.04589
   1    17     1         -0.16926  -0.11246  -0.20752   0.08469  -0.33062
   2    17     1          0.18458  -0.10849   0.04161   0.07783  -0.19743
   3    17     1         -0.16439  -0.07354   0.09145  -0.03958   0.41256
   1    18     1         -0.30076   0.12994   0.09230  -0.03195   0.15014
   2    18     1         -0.23913  -0.05856   0.07997  -0.03757   0.04712
   3    18     1         -0.01583  -0.09086  -0.27412  -0.00491  -0.11494
   1    19     1          0.00649  -0.16720   0.01104   0.09047   0.01510
   2    19     1         -0.26104   0.00729  -0.10039  -0.06768  -0.00855
   3    19     1         -0.06862  -0.14061   0.00487   0.05185   0.04488
   1    20     1          0.27578  -0.09796  -0.05713   0.15739  -0.35257
   2    20     1         -0.08971  -0.08986  -0.06721   0.01257  -0.20287
   3    20     1          0.07812  -0.03500   0.21679  -0.01535   0.39962
   1    21     1         -0.23812   0.07995  -0.31153   0.12014  -0.00931
   2    21     1         -0.01469  -0.30606   0.28421  -0.54199  -0.15660
   3    21     1         -0.14711   0.03478   0.06572  -0.01103  -0.07526
   1    22     1         -0.14471  -0.09087   0.02103   0.00114  -0.10010
   2    22     1         -0.15402   0.31615  -0.19549  -0.14103   0.03183
   3    22     1          0.06340   0.05173   0.04378  -0.04303   0.02666
   1    23     1          0.05943  -0.09457  -0.12690  -0.16767   0.06624
   2    23     1         -0.02806  -0.02683  -0.13505   0.12041   0.01346
   3    23     1          0.12916   0.01046   0.07191   0.01732   0.06555
   1    24     1          0.12075   0.09015  -0.16419   0.11471   0.14286
   2    24     1          0.17638  -0.34921   0.36123  -0.53359  -0.09112
   3    24     1         -0.03906   0.01876   0.04763  -0.05981  -0.04652
                          16        17        18        19        20
                           A         A         A         A         A
       Frequencies ---   499.3064  522.5134  569.0626  570.8388  640.3686
    Reduced masses ---     6.1021    4.3953    6.8060    5.6032    5.1433
   Force constants ---     0.8963    0.7070    1.2986    1.0758    1.2426
    IR Intensities ---     1.4680    4.1480    5.7274    5.5219    2.3927
 Coord Atom Element:
   1     1     6          0.00894   0.08302  -0.03551   0.06742  -0.06735
   2     1     6          0.00894   0.03677   0.10628   0.01082  -0.03409
   3     1     6         -0.03831  -0.09292  -0.01636   0.05043   0.07190
   1     2     6          0.05757  -0.20989   0.03442  -0.01822  -0.06155
   2     2     6          0.08394  -0.10070   0.00232   0.07645  -0.02693
   3     2     6         -0.08587   0.21405   0.04809   0.02584   0.06451
   1     3    17          0.09140   0.03442  -0.07490  -0.00724  -0.00171
   2     3    17         -0.02529   0.00559   0.01984  -0.02553  -0.00107
   3     3    17          0.09300  -0.00412  -0.06162  -0.02129   0.00177
   1     4     6         -0.12822  -0.03426   0.11018  -0.04369   0.09022
   2     4     6          0.01474  -0.00585  -0.01255   0.08717   0.05068
   3     4     6         -0.04689   0.00142   0.11582   0.01093  -0.09400
   1     5     6         -0.14255   0.08628   0.19476  -0.02108  -0.11622
   2     5     6          0.08544   0.07846  -0.17520   0.01840  -0.05954
   3     5     6         -0.08198  -0.13398   0.07087  -0.02744   0.12315
   1     6     6         -0.07958  -0.17687   0.06840   0.07861   0.10385
   2     6     6          0.09682  -0.05950  -0.12744  -0.05336   0.04753
   3     6     6         -0.11412   0.15181   0.03376   0.06460  -0.10287
   1     7     6         -0.10345   0.09746   0.01578   0.11080  -0.09099
   2     7     6          0.06817   0.07254  -0.10715  -0.00103  -0.04927
   3     7     6          0.03967  -0.11714  -0.05536   0.09403   0.10075
   1     8     7         -0.01208   0.01943  -0.14371  -0.11199   0.16365
   2     8     7         -0.13121  -0.02320   0.23396  -0.12133   0.08160
   3     8     7         -0.03507  -0.00644  -0.00608  -0.14515  -0.18783
   1     9     7          0.02036  -0.07543  -0.17853  -0.11070  -0.20843
   2     9     7         -0.19794  -0.06950   0.05622  -0.09411  -0.09682
   3     9     7         -0.09197   0.10675  -0.12578  -0.13133   0.22980
   1    10     6          0.02093   0.05449  -0.03101  -0.18391   0.03131
   2    10     6         -0.11313   0.01483  -0.20099   0.15813   0.00920
   3    10     6         -0.00736  -0.04374  -0.07564  -0.04540  -0.03843
   1    11     6         -0.07588  -0.02962  -0.00355   0.03380  -0.02288
   2    11     6          0.25595   0.05535   0.06917  -0.03340   0.02359
   3    11     6          0.05325  -0.05234  -0.02207  -0.03546  -0.08627
   1    12    17         -0.05284  -0.03412  -0.03094  -0.04566  -0.01235
   2    12    17         -0.04402  -0.01906  -0.02289  -0.00582  -0.00680
   3    12    17         -0.00317   0.02225  -0.00601  -0.00473   0.01292
   1    13     6          0.08812  -0.01562   0.06519   0.16172  -0.03488
   2    13     6          0.06290  -0.01129   0.13965  -0.06059  -0.00905
   3    13     6          0.00621  -0.06321  -0.04884  -0.08030  -0.11578
   1    14     6          0.18426   0.00909   0.21920   0.11644  -0.00262
   2    14     6         -0.09392  -0.01462  -0.09113   0.23312  -0.00531
   3    14     6          0.02983  -0.00287   0.07531   0.10549   0.00333
   1    15     6          0.01943   0.06516   0.00406   0.12967   0.10551
   2    15     6          0.19606   0.06060   0.14811  -0.11380   0.05082
   3    15     6          0.04552   0.02073   0.07844   0.06761   0.03277
   1    16     6          0.04550   0.09882   0.00322  -0.06257   0.10867
   2    16     6         -0.07203   0.00712  -0.09311   0.05897   0.02302
   3    16     6          0.07955  -0.02119   0.11561   0.15625  -0.01466
   1    17     1         -0.24877   0.09956   0.05582  -0.06775   0.29505
   2    17     1         -0.01751   0.06177   0.01289   0.09864   0.15548
   3    17     1          0.04407  -0.13900   0.09278   0.00522  -0.31196
[...]
 0186558,0.00001452,0.00031799,-0.00002349,0.00005013,0.00011302,0.0000
 2322,-0.00007801,0.00002050,0.00018278,0.00011680,0.00036074,0.0003203
 8,0.00564045,0.00081993,0.00137980,-0.03621862,-0.02464507,-0.00837562
 ,-0.27804412,-0.07847827,0.02880651,0.01097590,-0.00237496,0.08329833,
 0.00322081,-0.00034742,-0.00304356,-0.06282668,-0.02232415,-0.01445372
 ,0.05176833,0.02023358,-0.06127517,-0.23218029,-0.06190264,-0.08044848
 ,0.61929000,-0.00138865,0.00020899,0.00038669,-0.00094606,-0.00013291,
 -0.00112221,0.00428942,-0.00490693,-0.00134516,0.00002259,0.00004084,-
 0.00003557,0.00000225,0.00010237,0.00009883,0.00010081,-0.00000472,0.0
 0004573,0.00005362,0.00023044,0.00001725,0.00109926,0.00045367,0.00373
 977,-0.01665662,-0.00415569,-0.01036658,-0.08472188,-0.09218904,0.0166
 9239,-0.00206732,0.00593901,0.03514603,-0.00051212,0.00435203,-0.00036
 301,-0.02055604,-0.01325539,-0.00524798,0.01637425,0.01644431,-0.01900
 735,-0.05860570,-0.08441636,-0.02182098,0.18668792,0.20913938,-0.00121
 519,-0.00004938,0.00299049,-0.00072976,-0.00021729,-0.00038197,0.00028
 613,-0.00054170,0.00054437,-0.00017501,0.00044605,-0.00037721,0.000087
 26,0.00028844,0.00020666,-0.00001000,-0.00013793,0.00017466,0.00002591
 ,0.00053868,0.00000321,0.00171847,-0.00257984,-0.00720376,-0.02857512,
 -0.00695237,0.01339110,0.09079854,0.03545109,-0.14890060,0.03078895,0.
 01124995,0.00788812,0.00204450,0.00141771,-0.00480571,-0.01736064,-0.0
 0694468,-0.00672541,-0.00831487,0.00045153,-0.04823966,-0.14935392,-0.
 04742154,-0.24506265,0.01652948,-0.02723780,0.76341278,0.00058395,0.00
 357577,-0.00306216,0.00449638,0.01546512,0.00841636,-0.00139489,0.0008
 7011,0.00172198,-0.05769620,-0.04155360,-0.03886838,0.00099694,-0.0186
 3165,-0.01215796,-0.00022237,0.00187617,-0.00564116,-0.00104869,0.0005
 5389,0.00009874,0.00050980,0.00037265,0.00069171,-0.00011990,-0.000084
 05,0.00009262,0.00020714,-0.00009397,-0.00013430,-0.00002137,0.0000030
 5,-0.00005293,-0.00001386,-0.00002059,0.00000950,-0.00000950,-0.000001
 06,-0.00002139,-0.00001497,-0.00002713,-0.00003802,0.00001233,0.000004
 58,0.00004145,-0.00008010,0.00000718,-0.00001700,0.05535575,0.00449612
 ,-0.00224094,0.00045889,-0.00616045,-0.01544292,-0.01484628,-0.0012756
 1,0.00047766,0.00040311,-0.03939041,-0.24594596,-0.13700479,0.00256414
 ,0.00541089,0.00290427,0.00163130,0.00189708,-0.00075362,0.00036853,0.
 00031123,0.00091186,-0.00097397,-0.00006886,-0.00091900,0.00026883,-0.
 00019065,0.00029000,-0.00020917,0.00014644,-0.00023718,0.00007418,0.00
 006310,0.00003858,-0.00004117,0.00000154,0.00002119,-0.00001566,-0.000
 01161,0.00002419,0.00003891,0.00001333,0.00004124,0.00002875,0.0000012
 7,-0.00001050,0.00006561,0.00009329,0.00007748,0.03956763,0.25537197,-
 0.00261335,-0.00035503,0.00298691,-0.00191991,0.00562163,0.00426815,0.
 00070495,0.00241789,-0.00095648,-0.03782091,-0.13910809,-0.14005173,-0
 .00203586,-0.01718093,-0.00574071,-0.00576583,-0.00046460,0.00100498,0
 .00001312,0.00108811,-0.00033770,0.00006222,0.00029368,0.00016728,0.00
 025694,-0.00001436,-0.00005922,-0.00016096,-0.00014735,0.00007229,-0.0
 0007121,0.00006719,-0.00000190,0.00003175,-0.00000073,-0.00001127,0.00
 003882,0.00001645,0.00002661,-0.00001023,-0.00001987,-0.00000299,-0.00
 001442,0.00000644,-0.00000851,-0.00001983,0.00001038,-0.00002623,0.047
 02017,0.14737533,0.14078882,-0.00031549,-0.00076454,-0.00029301,0.0011
 7930,0.00094669,-0.00533077,-0.00081101,0.00032978,-0.00038761,-0.0062
 1059,0.01951180,-0.00106906,-0.13754835,0.13425063,-0.02676979,0.00775
 874,-0.00612103,-0.00061228,0.00357027,-0.00004537,-0.00354005,-0.0005
 1315,-0.00023666,0.00066665,0.00003373,0.00003615,-0.00007082,0.000038
 36,-0.00000041,-0.00007815,-0.00001275,-0.00000538,0.00000844,-0.00000
 514,-0.00000010,0.00000106,0.00000505,0.00000036,0.00001410,-0.0000026
 5,-0.00000039,0.00001456,0.00000590,0.00001854,-0.00000859,0.00000530,
 0.00000958,-0.00000318,-0.00137207,-0.00112030,0.00225483,0.13552295,-
 0.00078112,0.00028991,-0.00041366,0.00077238,0.00208405,-0.00176377,-0
 .00007970,-0.00000123,0.00003422,-0.00225997,0.00378374,-0.00262931,0.
 13455097,-0.25751880,0.02396346,0.01529546,-0.01271137,0.00583723,-0.0
 0026918,-0.00227469,-0.00482606,-0.00019523,-0.00023234,0.00035714,0.0
 0011465,0.00002673,0.00005486,-0.00000845,-0.00000030,-0.00005991,0.00
 004544,0.00001365,-0.00000061,-0.00001590,-0.00000642,0.00001169,-0.00
 000651,-0.00001124,-0.00000117,0.00000124,0.00000194,0.00001016,-0.000
 00664,-0.00000202,-0.00001120,0.00002003,-0.00000037,0.00003101,-0.000
 98196,0.00000796,0.00114245,-0.14576589,0.26679335,-0.00034369,-0.0003
 6973,-0.00088309,-0.00539527,-0.00160619,0.00140661,-0.00058950,0.0004
 3509,-0.00057414,-0.01152208,0.01797731,0.00249662,-0.02659061,0.02362
 478,-0.05525620,0.00964110,-0.01435823,0.00754824,-0.00367094,-0.00459
 365,0.00165372,0.00071757,0.00024280,-0.00054541,-0.00001536,-0.000019
 47,0.00009696,-0.00007001,-0.00004967,0.00002646,-0.00001870,-0.000013
 69,0.00001852,0.00001600,0.00000824,-0.00000602,-0.00001119,0.00000970
 ,0.00000947,0.00001753,0.00001068,-0.00000360,0.00001475,-0.00000136,0
 .00000181,0.00000602,0.00000916,-0.00000465,0.00232531,0.00100919,-0.0
 0163750,0.03296257,-0.02323565,0.04704632,0.00306963,0.00376431,-0.002
 36349,0.00013663,0.00026410,0.00063013,-0.00036818,-0.00021473,0.00037
 000,0.00379897,0.00035085,-0.00283997,0.00082224,0.00259440,-0.0015859
 2,-0.20427151,0.00319582,-0.15452981,-0.00730356,-0.00300277,-0.011843
 25,-0.00048047,0.00000299,-0.00044894,-0.00023087,0.00022007,-0.000040
 61,0.00010137,0.00003695,0.00012766,-0.00003791,-0.00001109,-0.0000197
 6,0.00000353,0.00000395,-0.00000986,0.00001814,0.00000981,0.00000484,-
 0.00002125,-0.00000900,-0.00000429,-0.00000376,0.00000769,0.00000202,-
 0.00001875,-0.00001893,-0.00004633,-0.00005669,0.00012213,-0.00009393,
 -0.00142917,-0.00103092,0.00196564,0.20772111,0.00314508,-0.00227634,-
 0.00163562,0.00028928,-0.00146266,-0.00022847,-0.00025445,0.00011247,0
 .00022866,0.00075527,-0.00307765,-0.00409612,-0.01919538,0.00534351,-0
 .01737720,0.00305942,-0.05722292,-0.00582106,0.01916216,0.00499735,0.0
 1863350,0.00088834,-0.00019587,0.00075808,0.00025349,-0.00038302,0.000
 07887,-0.00012105,-0.00005357,-0.00010855,0.00004394,0.00003279,0.0000
 0573,-0.00002327,-0.00000918,0.00001307,-0.00000641,-0.00000577,0.0000
 0533,0.00001165,0.00000379,0.00001909,-0.00000558,-0.00000148,-0.00001
 114,0.00003221,0.00001819,0.00001835,-0.00082240,0.00015928,-0.0007541
 1,-0.00070032,0.00036125,0.00143732,-0.00516738,0.05350680,-0.00269740
 ,-0.00104621,0.00441335,0.00063664,-0.00020587,0.00010998,0.00035214,0
 .00026342,-0.00041105,-0.00262199,-0.00450010,0.00238023,-0.01200630,0
 .00311987,-0.00600283,-0.15452614,-0.00562165,-0.18735591,-0.00130744,
 -0.00225760,0.00147108,-0.00001828,-0.00011326,-0.00007643,-0.00004677
 ,0.00005955,-0.00006550,0.00007561,0.00003204,0.00003718,-0.00006208,-
 0.00003713,0.00001146,0.00002755,0.00000991,-0.00001345,0.00000416,0.0
 0000922,-0.00000680,0.00000267,0.00000148,-0.00001421,0.00001110,0.000
 00422,0.00001660,-0.00002801,0.00000265,-0.00002226,-0.00054351,0.0001
 4004,-0.00034420,0.00213222,0.00112577,-0.00149802,0.16837092,0.007901
 12,0.18923279,0.00088888,-0.01700385,-0.01325131,-0.00037690,0.0020931
 3,-0.00372992,-0.00041142,-0.00072640,-0.00099869,-0.00112680,0.000181
 18,0.00000142,0.00125010,0.00440535,-0.00340037,0.00769765,0.01483809,
 0.00886452,-0.05609160,-0.03527500,-0.03047809,-0.00371074,-0.00275116
 ,0.00135304,0.00062457,0.00028107,0.00053225,0.00030022,0.00015618,-0.
 00047807,0.00013498,0.00005654,-0.00004180,-0.00010001,-0.00002574,0.0
 0006884,-0.00002590,-0.00002516,0.00002270,0.00003420,0.00002161,0.000
 05673,0.00001911,0.00000712,-0.00007456,0.00018523,0.00005369,0.000220
 79,-0.00009793,-0.00004900,0.00014165,0.00009918,0.00060253,0.00055691
 ,-0.00144529,-0.00134521,0.00224155,0.05214447,0.00220748,0.00295542,0
 .00047194,0.00026970,0.00072918,-0.00155161,0.00041071,0.00013799,0.00
 030235,0.00055687,0.00038576,0.00119693,0.00420758,-0.00196375,-0.0002
 6315,-0.00570659,-0.01129329,-0.01341662,-0.03780402,-0.25756888,-0.13
 686279,0.00286226,-0.00300498,0.00424510,-0.00031455,0.00076316,-0.000
 02787,0.00050745,-0.00015673,-0.00003891,-0.00013981,-0.00001986,-0.00
 007338,0.00001930,-0.00001000,-0.00000874,0.00003108,0.00003378,0.0000
 0070,-0.00003162,-0.00002028,-0.00002482,0.00000323,0.00002757,0.00001
 206,-0.00003598,-0.00001557,-0.00001714,-0.00009717,-0.00004488,0.0000
 1608,-0.00033485,-0.00060852,-0.00051046,-0.00111288,0.00015186,0.0011
 1827,0.03451288,0.26953004,-0.00423533,-0.01752507,-0.00582510,-0.0045
 9011,0.00003633,0.00032379,-0.00047431,-0.00075244,-0.00052181,0.00012
 000,0.00088544,-0.00050128,-0.00346953,-0.00009081,0.00379894,-0.00075
 440,0.00581111,0.00774376,-0.03173849,-0.13419263,-0.13405368,0.003874
 70,-0.00123719,-0.00307498,0.00036957,0.00050240,0.00069674,-0.0002573
 5,-0.00029504,0.00047193,0.00014416,0.00002843,0.00012832,0.00003216,0
 .00000643,0.00001546,-0.00004935,-0.00001624,0.00003507,0.00003941,0.0
 0001960,0.00001247,0.00002045,0.00000620,0.00000390,-0.00002083,0.0000
 2965,0.00000073,0.00011789,0.00006367,-0.00012993,0.00010963,0.0003671
 8,0.00010526,0.00236363,0.00092651,-0.00185501,0.03837085,0.14543912,0
 .13262295,0.00020164,0.00015541,-0.00011173,-0.00011053,-0.00004037,-0
 .00013061,0.00007321,-0.00004098,0.00008659,-0.00003513,0.00001421,0.0
 0002352,-0.00000014,0.00002696,0.00000943,0.00001576,0.00000010,0.0000
 1038,-0.00001127,0.00003637,0.00001902,-0.00027387,-0.00044578,-0.0000
 2648,0.00050181,0.00068659,-0.00044773,-0.00188605,-0.00318137,-0.0033
 4358,0.00653434,0.00266111,-0.02072821,0.00052991,0.00133528,-0.000304
 94,-0.06691807,-0.01588683,0.05952173,0.00078729,-0.00325593,0.0262086
 5,-0.00348692,-0.00424272,0.00078539,-0.00107302,0.00000649,-0.0003910
 1,-0.00000406,0.00000931,-0.00000013,0.00000223,0.00000170,0.00000028,
 -0.00000119,0.00000269,-0.00000294,0.00000718,-0.00000563,0.00001048,0
 .06512310,-0.00003427,0.00001244,0.00002135,0.00013341,0.00002157,0.00
 002792,-0.00012614,0.00009467,-0.00003621,0.00000896,-0.00000240,-0.00
 002127,-0.00000578,-0.00001040,-0.00000670,-0.00001271,0.00001038,-0.0
 0000934,0.00000848,-0.00001353,-0.00000291,-0.00030302,-0.00009091,-0.
 00005131,0.00025309,0.00038294,-0.00039200,-0.00268699,0.00470450,-0.0
 0062144,0.00066055,0.00450371,-0.00711001,0.00121883,-0.00242465,-0.00
 045712,-0.01530248,-0.04713671,0.04474673,-0.00162823,0.00281197,0.011
 21536,-0.00440535,0.00529627,0.00043198,-0.00000350,-0.00102601,-0.000
 22068,0.00000368,-0.00000569,0.00000457,-0.00000423,0.00000008,0.00000
 069,-0.00000161,0.00000029,-0.00000128,-0.00000194,-0.00000069,-0.0000
 0169,0.02026567,0.03707011,0.00014565,0.00019626,-0.00000800,-0.000134
 50,-0.00004093,-0.00013611,0.00007491,0.00002398,0.00007217,-0.0000123
 7,0.00001826,0.00002198,-0.00000673,0.00001947,-0.00000125,0.00000849,
 0.00001905,0.00001453,0.00001410,0.00004067,0.00003295,-0.00030892,-0.
 00047438,-0.00007689,0.00055590,0.00057211,-0.00034152,-0.00335126,-0.
 00104031,-0.00131930,0.00815277,0.00476833,-0.01484856,0.00066138,-0.0
 0015792,0.00106788,0.05766580,0.04373360,-0.33096619,-0.00184047,-0.00
 024212,-0.00220532,0.00103974,0.00077463,0.00149745,-0.00045355,-0.000
 31227,0.00077576,-0.00000563,0.00001020,-0.00000205,0.00000063,0.00000
 261,0.00000065,-0.00000368,0.00000408,-0.00000325,0.00001448,-0.000008
 54,0.00001418,-0.06232191,-0.04759394,0.34613683,0.00001850,0.00000374
 ,0.00002209,-0.00004091,-0.00001522,-0.00003969,0.00002687,0.00000287,
 -0.00000646,-0.00000502,0.00000331,-0.00000395,-0.00000369,0.00000586,
 0.00000175,0.00000460,0.00000848,0.00000538,0.00001014,0.00001768,0.00
 001322,-0.00004304,-0.00011380,-0.00005658,-0.00007935,0.00040779,-0.0
 0004822,-0.00025584,0.00000138,0.00095974,-0.00178666,-0.00365638,0.00
 204412,-0.00103147,-0.00043045,-0.00041664,-0.01274125,-0.00491024,-0.
 02059467,-0.19228245,-0.05156325,-0.13834234,0.00808300,0.00126023,0.0
 0700920,0.00166671,-0.00206144,0.00154150,-0.00000269,0.00000161,-0.00
 000258,-0.00000077,0.00000120,-0.00000003,-0.00000183,0.00000080,-0.00
 000028,0.00000443,-0.00000272,0.00000740,0.00020644,0.00181758,0.00017
 029,0.19808266,-0.00003024,0.00001892,0.00003736,0.00004649,0.00000669
 ,0.00005083,-0.00004083,0.00000010,-0.00004182,-0.00001223,0.00000507,
 -0.00001277,0.00000554,-0.00000006,0.00000644,0.00000029,-0.00000667,-
 0.00000657,0.00000308,-0.00000704,-0.00000510,0.00010023,-0.00001184,0
 .00008908,0.00054532,-0.00045552,-0.00000110,-0.00016083,-0.00083386,0
 .00022767,-0.00348143,0.00560619,0.00148695,-0.00069378,-0.00007423,-0
 .00011532,-0.00730573,0.00121501,-0.00882508,-0.05148261,-0.05435854,-
 0.04293118,0.00342196,0.00456254,0.00380927,-0.00200300,0.00575076,0.0
 0142909,0.00000421,-0.00000160,0.00000136,-0.00000118,0.00000060,-0.00
 000035,-0.00000110,-0.00000062,-0.00000063,-0.00000348,-0.00000066,-0.
 00000103,0.00182877,-0.00365736,-0.00024917,0.05758135,0.04549113,0.00
 002582,0.00004167,0.00002122,-0.00001635,-0.00001604,-0.00003368,-0.00
 001737,-0.00001202,0.00001724,-0.00001525,0.00000848,-0.00000815,0.000
 00147,0.00001030,0.00000327,0.00000124,0.00000368,0.00000695,0.0000063
 2,0.00001554,0.00001821,0.00006553,-0.00013028,-0.00005068,-0.00010825
 ,0.00005438,0.00021942,0.00106387,0.00025437,-0.00034610,0.00169152,0.
 00117674,0.00069576,0.00048487,0.00018447,0.00015771,0.00880063,0.0030
 6640,0.00949055,-0.13841169,-0.04307134,-0.19814314,-0.02236696,-0.007
 62816,-0.01323749,0.00212648,0.00170014,-0.00471090,-0.00000248,0.0000
 0128,0.00000050,-0.00000129,0.00000187,-0.00000026,-0.00000202,0.00000
 144,-0.00000205,0.00000826,-0.00000165,0.00000253,-0.00012945,-0.00042
 292,0.00051946,0.14757594,0.04537183,0.20519162,-0.00005116,0.00007442
 ,0.00023305,-0.00013412,-0.00005788,-0.00017559,0.00010336,-0.00001861
 ,0.00008520,-0.00001190,0.00004976,-0.00002841,-0.00000314,0.00003676,
 0.00001762,0.00001484,0.00000804,0.00002117,0.00001321,0.00006536,0.00
 003703,0.00010964,-0.00038383,-0.00039412,-0.00043894,0.00016432,0.000
 60249,-0.00034797,-0.00295047,-0.00338831,0.00047109,0.00052818,-0.000
 48602,-0.00012613,0.00020774,0.00006834,0.00219229,-0.00192802,0.00083
 683,-0.00062332,-0.00165431,-0.00207249,-0.28268294,-0.10143783,0.0723
 1276,-0.01261179,-0.00715830,0.00886404,-0.00001068,0.00001135,0.00000
 166,-0.00000253,0.00000309,0.00000275,-0.00000751,0.00000376,-0.000002
 36,0.00002402,-0.00000744,0.00001295,-0.00013021,-0.00008503,-0.000085
 51,-0.00010839,0.00160800,0.00021636,0.29426523,0.00001925,0.00010551,
 0.00001270,-0.00000704,-0.00001486,0.00002692,-0.00006470,0.00008492,-
 0.00001033,0.00000132,-0.00001197,0.00001321,-0.00001003,-0.00000924,-
 0.00001615,-0.00001454,0.00002369,0.00000209,0.00002729,-0.00000500,0.
 00001907,-0.00006466,-0.00009294,-0.00025474,-0.00036802,-0.00001339,0
 .00033205,-0.00273344,0.00597062,-0.00057920,0.00057268,-0.00054391,-0
 .00053458,0.00021876,-0.00058826,-0.00005906,-0.00171559,0.00614918,0.
 00125711,-0.00379767,0.00251736,-0.00026612,-0.10139798,-0.08103243,0.
 03118033,-0.00501000,0.00188261,0.00348900,0.00000429,-0.00000040,-0.0
 0000049,-0.00000096,0.00000245,-0.00000230,-0.00000279,0.00000194,-0.0
 0000232,0.00000480,-0.00000373,0.00000249,-0.00016917,0.00001087,-0.00
 002311,0.00163604,-0.00351629,-0.00027037,0.11114983,0.07280213,-0.000
 08193,-0.00000690,0.00017223,-0.00008730,-0.00006173,-0.00006832,0.000
 04387,0.00003837,0.00002345,0.00000395,0.00002415,-0.00001441,-0.00000
 376,0.00001780,0.00000502,0.00000359,0.00000483,0.00001273,0.00000597,
 0.00003101,0.00001017,0.00004005,-0.00023197,-0.00054132,-0.00054719,0
 .00029952,0.00092684,-0.00373697,-0.00122899,-0.00244713,-0.00062786,-
 0.00022616,-0.00129603,0.00011922,-0.00001660,0.00016163,0.00044845,0.
 00104270,-0.00539041,0.02715557,0.01117787,-0.00198149,0.07241100,0.03
 142677,-0.08262725,-0.01984602,-0.00814177,0.00973792,-0.00000089,0.00
 000645,0.00000081,0.00000006,0.00000167,0.00000108,-0.00000400,0.00000
 160,-0.00000101,0.00001394,-0.00000215,0.00000397,0.00120133,0.0005210
 0,-0.00019543,-0.00018003,-0.00043297,0.00091710,-0.07680379,-0.034086
 55,0.08189371,-0.00017969,-0.00012438,0.00006370,0.00005954,0.00009768
 ,0.00017720,0.00007378,-0.00015761,-0.00016613,0.00002336,-0.00001923,
 -0.00001809,0.00000708,-0.00001930,-0.00000007,-0.00000083,-0.00003240
 ,-0.00002477,-0.00004837,-0.00002189,-0.00008001,-0.00075860,0.0005890
 7,-0.00064725,0.00107561,0.00166054,0.00145144,-0.00079060,-0.00431958
 ,0.02664170,-0.00276802,-0.00330493,0.00008057,-0.00084975,-0.00036794
 ,0.00119451,-0.00120836,-0.00017749,-0.00035509,-0.00169264,-0.0030598
 0,-0.00308298,0.00879136,0.00340461,-0.02125106,-0.06601262,-0.0140139
 9,0.05328647,0.00000366,-0.00001267,0.00000303,0.00000265,-0.00000722,
 0.00000094,0.00000633,-0.00000666,0.00000894,-0.00002764,0.00000473,-0
 .00000360,-0.00005245,0.00023103,0.00002040,0.00028002,0.00007121,-0.0
 0099718,0.00009704,0.00172231,0.00047273,0.06396913,-0.00010410,0.0000
 2949,0.00045265,0.00013830,0.00010284,0.00018712,-0.00035365,0.0002236
 6,0.00005334,0.00003051,0.00000380,0.00002010,0.00000528,-0.00003426,-
 0.00000391,-0.00001400,-0.00000179,-0.00002624,0.00003749,-0.00004915,
 0.00001469,-0.00003314,0.00064970,-0.00007733,0.00416924,-0.00335891,0
 .00030400,-0.00352476,0.00256719,0.00979227,-0.00371806,0.00509714,0.0
 0071103,-0.00022220,-0.00021374,0.00056608,-0.00007743,-0.00102110,-0.
 00020126,-0.00318885,0.00572510,-0.00076997,0.00183388,0.00486449,-0.0
 0702581,-0.01485139,-0.04455290,0.03743196,0.00000526,-0.00000154,-0.0
 0001601,-0.00000193,0.00000158,-0.00000420,0.00000012,-0.00000044,-0.0
 0000151,-0.00000724,-0.00000293,-0.00001243,0.00023813,-0.00055146,-0.
 00004057,0.00000356,0.00026728,-0.00033982,0.00177111,-0.00371887,-0.0
 0015794,0.01786390,0.03397484,-0.00013844,-0.00000190,-0.00010202,0.00
 019090,-0.00004657,0.00008727,-0.00016506,0.00004905,0.00002261,-0.000
 00098,-0.00002021,-0.00000252,0.00000484,-0.00001537,-0.00000291,-0.00
 001639,0.00000009,-0.00001106,0.00001342,-0.00003115,0.00000555,0.0008
 3269,0.00029175,0.00061775,-0.00111151,-0.00117147,-0.00060024,-0.0014
 6437,0.00110875,-0.00345840,0.00102175,0.00040747,0.00079662,-0.000011
 04,0.00005122,-0.00010481,-0.00030180,-0.00012159,0.00083642,-0.003601
 76,-0.00111816,-0.00082131,0.00741001,0.00449035,-0.01328177,0.0535902
 3,0.03712203,-0.33266477,0.00001007,-0.00000561,-0.00000593,-0.0000001
 7,0.00000003,-0.00000281,0.00000102,-0.00000051,-0.00000069,-0.0000151
 0,0.00000528,-0.00001822,0.00006192,-0.00002078,-0.00004998,0.00034082
 ,0.00011322,-0.00072912,0.00012436,-0.00022967,0.00069614,-0.05677542,
 -0.04085625,0.34879421\\0.00000157,-0.00000019,0.00000079,-0.00000132,
 -0.00000192,0.00000178,0.,-0.00000018,0.00000374,-0.00000174,-0.000000
 52,0.00000285,-0.00000247,-0.00000161,-0.00000059,0.00000032,0.0000005
 7,-0.00000098,0.00000068,-0.00000096,-0.00000239,0.00000245,0.00000082
 ,-0.00000200,0.00000332,0.00000148,-0.00000192,0.00000227,0.00000145,-
 0.00000140,0.00000067,-0.00000100,-0.00000293,0.00000133,-0.00000529,-
 0.00000540,0.00000094,-0.00000012,0.00000009,-0.00000275,-0.00000045,0
 .00000380,0.00000067,0.00000358,0.00000159,-0.00000302,0.00000168,0.00
 000055,-0.00000078,-0.00000033,0.00000107,-0.00000166,0.00000042,-0.00
 000020,-0.00000105,-0.00000007,-0.00000264,0.00000110,0.00000070,-0.00
 000111,0.00000026,-0.00000105,0.00000036,0.,0.00000016,0.00000237,-0.0
 0000076,0.00000103,0.00000227,-0.00000002,0.00000181,0.00000028\\\@
 The archive entry for this job was punched.


 QUANTUM MECHANICS IS BOHRING -- M.S. GORDON
 Job cpu time:       0 days  0 hours 20 minutes 53.5 seconds.
 Elapsed time:       0 days  0 hours  1 minutes 52.2 seconds.
 File lengths (MBytes):  RWF=    245 Int=      0 D2E=      0 Chk=      6 Scr=      1
 Normal termination of Gaussian 16 at Fri Mar  6 17:33:46 2026.
