 Entering Gaussian System, Link 0=g16
 Initial command:
 /prod/precompiled/gaussian/16c2/g16/l1.exe "/scratch/ucsscms/svela/2076948/Gau-33033.inp" -scrdir="/scratch/ucsscms/svela/2076948/"
 Entering Link 1 = /prod/precompiled/gaussian/16c2/g16/l1.exe PID=     33044.
  
 Copyright (c) 1988-2021, Gaussian, Inc.  All Rights Reserved.
  
 This is part of the Gaussian(R) 16 program.  It is based on
 the Gaussian(R) 09 system (copyright 2009, Gaussian, Inc.),
 the Gaussian(R) 03 system (copyright 2003, Gaussian, Inc.),
 the Gaussian(R) 98 system (copyright 1998, Gaussian, Inc.),
 the Gaussian(R) 94 system (copyright 1995, Gaussian, Inc.),
 the Gaussian 92(TM) system (copyright 1992, Gaussian, Inc.),
 the Gaussian 90(TM) system (copyright 1990, Gaussian, Inc.),
 the Gaussian 88(TM) system (copyright 1988, Gaussian, Inc.),
 the Gaussian 86(TM) system (copyright 1986, Carnegie Mellon
 University), and the Gaussian 82(TM) system (copyright 1983,
 Carnegie Mellon University). Gaussian is a federally registered
 trademark of Gaussian, Inc.
  
 This software contains proprietary and confidential information,
 including trade secrets, belonging to Gaussian, Inc.
  
 This software is provided under written license and may be
 used, copied, transmitted, or stored only in accord with that
 written license.
  
 The following legend is applicable only to US Government
 contracts under FAR:
  
                    RESTRICTED RIGHTS LEGEND
  
 Use, reproduction and disclosure by the US Government is
 subject to restrictions as set forth in subparagraphs (a)
 and (c) of the Commercial Computer Software - Restricted
 Rights clause in FAR 52.227-19.
  
 Gaussian, Inc.
 340 Quinnipiac St., Bldg. 40, Wallingford CT 06492
  
  
 ---------------------------------------------------------------
 Warning -- This program may not be used in any manner that
 competes with the business of Gaussian, Inc. or will provide
 assistance to any competitor of Gaussian, Inc.  The licensee
 of this program is prohibited from giving any competitor of
 Gaussian, Inc. access to this program.  By using this program,
 the user acknowledges that Gaussian, Inc. is engaged in the
 business of creating and licensing software in the field of
 computational chemistry and represents and warrants to the
 licensee that it is not a competitor of Gaussian, Inc. and that
 it will not use this program in any manner prohibited above.
 ---------------------------------------------------------------
  

 Cite this work as:
 Gaussian 16, Revision C.02,
 M. J. Frisch, G. W. Trucks, H. B. Schlegel, G. E. Scuseria, 
 M. A. Robb, J. R. Cheeseman, G. Scalmani, V. Barone, 
 G. A. Petersson, H. Nakatsuji, X. Li, M. Caricato, A. V. Marenich, 
 J. Bloino, B. G. Janesko, R. Gomperts, B. Mennucci, H. P. Hratchian, 
 J. V. Ortiz, A. F. Izmaylov, J. L. Sonnenberg, D. Williams-Young, 
 F. Ding, F. Lipparini, F. Egidi, J. Goings, B. Peng, A. Petrone, 
 T. Henderson, D. Ranasinghe, V. G. Zakrzewski, J. Gao, N. Rega, 
 G. Zheng, W. Liang, M. Hada, M. Ehara, K. Toyota, R. Fukuda, 
 J. Hasegawa, M. Ishida, T. Nakajima, Y. Honda, O. Kitao, H. Nakai, 
 T. Vreven, K. Throssell, J. A. Montgomery, Jr., J. E. Peralta, 
 F. Ogliaro, M. J. Bearpark, J. J. Heyd, E. N. Brothers, K. N. Kudin, 
 V. N. Staroverov, T. A. Keith, R. Kobayashi, J. Normand, 
 K. Raghavachari, A. P. Rendell, J. C. Burant, S. S. Iyengar, 
 J. Tomasi, M. Cossi, J. M. Millam, M. Klene, C. Adamo, R. Cammi, 
 J. W. Ochterski, R. L. Martin, K. Morokuma, O. Farkas, 
 J. B. Foresman, and D. J. Fox, Gaussian, Inc., Wallingford CT, 2019.
 
 ******************************************
 Gaussian 16:  ES64L-G16RevC.02  7-Dec-2021
                 6-Mar-2026 
 ******************************************
 %nprocs=12
 Will use up to   12 processors via shared memory.
 %mem=18gb
 %chk=test_tsinv_r_a_freq_r1.chk
 ----------------------------------------------------------------------
 #p nosymm scf=(maxconventionalcycles=200,xqc) wB97XD def2SVP freq(hpmo
 des)
 ----------------------------------------------------------------------
 1/10=4,30=1,38=1/1,3;
 2/12=2,15=1,17=6,18=5,40=1/2;
 3/5=43,7=101,11=2,25=1,30=1,71=2,74=-58,140=1/1,2,3;
 4//1;
 5/5=2,8=3,13=1,38=5,85=200,98=1/2,8;
 8/6=4,10=90,11=11/1;
 11/6=1,8=1,9=11,15=111,16=1,31=1/1,2,10;
 10/6=1,31=1/2;
 6/7=2,8=2,9=2,10=2,28=1/1;
 7/8=11,10=1,25=1,30=1/1,2,3,16;
 1/10=4,30=1/3;
 99//99;
 Leave Link    1 at Fri Mar  6 17:31:51 2026, MaxMem=  2415919104 cpu:               0.0 elap:               0.1
 (Enter /prod/precompiled/gaussian/16c2/g16/l101.exe)
 ----------
 Title Card
 ----------
 Symbolic Z-matrix:
 Charge =  0 Multiplicity = 1
 C                    -1.70624   1.5689   -0.55719 
 C                    -1.1933    2.80311  -0.12628 
 Cl                    0.47347   3.24316  -0.34164 
 C                    -2.04587   3.74329   0.45179 
 C                    -3.39976   3.45931   0.61164 
 C                    -3.92109   2.24276   0.17237 
 C                    -3.07523   1.31705  -0.42438 
 N                    -0.98964   0.48522  -1.17952 
 N                     0.19759   0.36549  -0.96246 
 C                     1.47796   0.18519  -0.67145 
 C                     1.85288  -0.43199   0.5499 
 Cl                    0.58837  -0.91935   1.64741 
 C                     3.18879  -0.63826   0.86122 
 C                     4.19463  -0.21555  -0.00702 
 C                     3.83722   0.41458  -1.19968 
 C                     2.50754   0.612    -1.54483 
 H                    -1.63374   4.7011    0.7725 
 H                    -4.05169   4.20377   1.07289 
 H                    -4.9837    2.02231   0.28583 
 H                    -3.44223   0.35932  -0.79857 
 H                     3.43112  -1.12666   1.80671 
 H                     5.24241  -0.3751    0.24955 
 H                     4.61187   0.75759  -1.88912 
 H                     2.23256   1.09875  -2.4806 
 
 ITRead=  0  0  0  0  0  0  0  0  0  0  0  0  0  0  0  0  0  0  0  0
 ITRead=  0  0  0  0
 MicOpt= -1 -1 -1 -1 -1 -1 -1 -1 -1 -1 -1 -1 -1 -1 -1 -1 -1 -1 -1 -1
 MicOpt= -1 -1 -1 -1
 NAtoms=     24 NQM=       24 NQMF=       0 NMMI=      0 NMMIF=      0
                NMic=       0 NMicF=      0.
                    Isotopes and Nuclear Properties:
 (Nuclear quadrupole moments (NQMom) in fm**2, nuclear magnetic moments (NMagM)
  in nuclear magnetons)

  Atom         1           2           3           4           5           6           7           8           9          10
 IAtWgt=          12          12          35          12          12          12          12          14          14          12
 AtmWgt=  12.0000000  12.0000000  34.9688527  12.0000000  12.0000000  12.0000000  12.0000000  14.0030740  14.0030740  12.0000000
 NucSpn=           0           0           3           0           0           0           0           2           2           0
 AtZEff=  -0.0000000  -0.0000000  -0.0000000  -0.0000000  -0.0000000  -0.0000000  -0.0000000  -0.0000000  -0.0000000  -0.0000000
 NQMom=    0.0000000   0.0000000  -8.1650000   0.0000000   0.0000000   0.0000000   0.0000000   2.0440000   2.0440000   0.0000000
 NMagM=    0.0000000   0.0000000   0.8218740   0.0000000   0.0000000   0.0000000   0.0000000   0.4037610   0.4037610   0.0000000
 AtZNuc=   6.0000000   6.0000000  17.0000000   6.0000000   6.0000000   6.0000000   6.0000000   7.0000000   7.0000000   6.0000000

  Atom        11          12          13          14          15          16          17          18          19          20
 IAtWgt=          12          35          12          12          12          12           1           1           1           1
 AtmWgt=  12.0000000  34.9688527  12.0000000  12.0000000  12.0000000  12.0000000   1.0078250   1.0078250   1.0078250   1.0078250
 NucSpn=           0           3           0           0           0           0           1           1           1           1
 AtZEff=  -0.0000000  -0.0000000  -0.0000000  -0.0000000  -0.0000000  -0.0000000  -0.0000000  -0.0000000  -0.0000000  -0.0000000
 NQMom=    0.0000000  -8.1650000   0.0000000   0.0000000   0.0000000   0.0000000   0.0000000   0.0000000   0.0000000   0.0000000
 NMagM=    0.0000000   0.8218740   0.0000000   0.0000000   0.0000000   0.0000000   2.7928460   2.7928460   2.7928460   2.7928460
 AtZNuc=   6.0000000  17.0000000   6.0000000   6.0000000   6.0000000   6.0000000   1.0000000   1.0000000   1.0000000   1.0000000

  Atom        21          22          23          24
 IAtWgt=           1           1           1           1
 AtmWgt=   1.0078250   1.0078250   1.0078250   1.0078250
 NucSpn=           1           1           1           1
 AtZEff=  -0.0000000  -0.0000000  -0.0000000  -0.0000000
 NQMom=    0.0000000   0.0000000   0.0000000   0.0000000
 NMagM=    2.7928460   2.7928460   2.7928460   2.7928460
 AtZNuc=   1.0000000   1.0000000   1.0000000   1.0000000
 Leave Link  101 at Fri Mar  6 17:31:52 2026, MaxMem=  2415919104 cpu:               0.2 elap:               0.1
 (Enter /prod/precompiled/gaussian/16c2/g16/l103.exe)

 GradGradGradGradGradGradGradGradGradGradGradGradGradGradGradGradGradGrad
 Berny optimization.
 Initialization pass.
 Trust Radius=3.00D-01 FncErr=1.00D-07 GrdErr=1.00D-07 EigMax=2.50D+02 EigMin=1.00D-04
 Number of steps in this run=      2 maximum allowed number of steps=      2.
 GradGradGradGradGradGradGradGradGradGradGradGradGradGradGradGradGradGrad

 Leave Link  103 at Fri Mar  6 17:31:52 2026, MaxMem=  2415919104 cpu:               0.1 elap:               0.1
 (Enter /prod/precompiled/gaussian/16c2/g16/l202.exe)
                          Input orientation:                          
 ---------------------------------------------------------------------
 Center     Atomic      Atomic             Coordinates (Angstroms)
 Number     Number       Type             X           Y           Z
 ---------------------------------------------------------------------
      1          6           0       -1.706243    1.568899   -0.557190
      2          6           0       -1.193299    2.803107   -0.126276
      3         17           0        0.473466    3.243162   -0.341640
      4          6           0       -2.045866    3.743289    0.451793
      5          6           0       -3.399760    3.459313    0.611636
      6          6           0       -3.921092    2.242764    0.172371
      7          6           0       -3.075232    1.317054   -0.424383
      8          7           0       -0.989637    0.485224   -1.179520
      9          7           0        0.197593    0.365485   -0.962458
     10          6           0        1.477961    0.185186   -0.671452
     11          6           0        1.852884   -0.431993    0.549903
     12         17           0        0.588371   -0.919350    1.647409
     13          6           0        3.188786   -0.638261    0.861218
     14          6           0        4.194633   -0.215554   -0.007016
     15          6           0        3.837224    0.414579   -1.199678
     16          6           0        2.507537    0.611999   -1.544830
     17          1           0       -1.633735    4.701101    0.772500
     18          1           0       -4.051687    4.203772    1.072885
     19          1           0       -4.983698    2.022312    0.285832
     20          1           0       -3.442226    0.359323   -0.798570
     21          1           0        3.431116   -1.126657    1.806714
     22          1           0        5.242413   -0.375099    0.249554
     23          1           0        4.611867    0.757590   -1.889122
     24          1           0        2.232555    1.098745   -2.480601
 ---------------------------------------------------------------------
                    Distance matrix (angstroms):
                    1          2          3          4          5
     1  C    0.000000
     2  C    1.404303   0.000000
     3  Cl   2.756946   1.737278   0.000000
     4  C    2.421025   1.394624   2.688252   0.000000
     5  C    2.794248   2.417352   3.994663   1.392559   0.000000
     6  C    2.427326   2.800719   4.536204   2.417876   1.394537
     7  C    1.398283   2.416380   4.038564   2.777390   2.401651
     8  N    1.440545   2.554091   3.232481   3.793651   4.226362
     9  N    2.288458   2.928444   2.956780   4.294505   4.999049
    10  C    3.473740   3.779730   3.235584   5.132167   6.013184
    11  C    4.230438   4.494699   4.025470   5.713393   6.537304
    12  Cl   4.039417   4.491881   4.614762   5.487158   6.012546
    13  C    5.553805   5.658695   4.887256   6.838654   7.762818
    14  C    6.189289   6.177083   5.091343   7.404510   8.459443
    15  C    5.698708   5.671280   4.477944   6.958334   8.057618
    16  C    4.432497   4.528735   3.536683   5.875794   6.903166
    17  H    3.403531   2.145731   2.794135   1.090921   2.164892
    18  H    3.885976   3.401504   4.837423   2.149679   1.091778
    19  H    3.414379   3.891863   5.627152   3.408836   2.163326
    20  H    2.129548   3.388470   4.884461   3.868392   3.405939
    21  H    6.264704   6.369043   5.697231   7.453155   8.313856
    22  H    7.260426   7.187533   6.015329   8.373830   9.461552
    23  H    6.507748   6.402477   5.069431   7.662877   8.816987
    24  H    4.408479   4.492680   3.502581   5.822150   6.845231
                    6          7          8          9         10
     6  C    0.000000
     7  C    1.388716   0.000000
     8  N    3.675593   2.368941   0.000000
     9  N    4.666431   3.450564   1.212835   0.000000
    10  C    5.839130   4.698269   2.537163   1.325343   0.000000
    11  C    6.374610   5.319279   3.451393   2.379747   1.418868
    12  Cl   5.701750   4.766111   3.529088   2.935117   2.718177
    13  C    7.702284   6.686849   4.783937   3.644247   2.440095
    14  C    8.481775   7.441372   5.361204   4.150519   2.825310
    15  C    8.088031   7.014099   4.827420   3.647684   2.428532
    16  C    6.850945   5.737579   3.518487   2.394946   1.415975
    17  H    3.411096   3.868102   4.690295   5.016115   5.671079
    18  H    2.161836   3.395352   5.317620   6.077125   7.054697
    19  H    1.091148   2.155003   4.523541   5.581136   6.785607
    20  H    2.172415   1.091764   2.485189   3.643512   4.924908
    21  H    8.251002   7.299458   5.573043   4.511150   3.417170
    22  H    9.530424   8.514740   6.451423   5.240959   3.915772
    23  H    8.903195   7.845378   5.652837   4.527501   3.410533
    24  H    6.798118   5.696340   3.528702   2.642631   2.162642
                   11         12         13         14         15
    11  C    0.000000
    12  Cl   1.743855   0.000000
    13  C    1.387118   2.731166   0.000000
    14  C    2.416773   4.029588   1.394360   0.000000
    15  C    2.777647   4.521097   2.403380   1.395440   0.000000
    16  C    2.430308   4.027235   2.795768   2.428170   1.387866
    17  H    6.209244   6.106774   7.195371   7.664921   7.224621
    18  H    7.525144   6.935892   8.712895   9.417984   9.041982
    19  H    7.268576   6.446334   8.613896   9.451749   9.088466
    20  H    5.521119   4.885031   6.907995   7.699263   7.290702
    21  H    2.133764   2.854742   1.091429   2.168567   3.402753
    22  H    3.403286   4.889817   2.158882   1.090470   2.167584
    23  H    3.869876   5.613172   3.396753   2.159494   1.092273
    24  H    3.416323   4.880217   3.885785   3.419906   2.164211
                   16         17         18         19         20
    16  C    0.000000
    17  H    6.264256   0.000000
    18  H    7.923174   2.486777   0.000000
    19  H    7.839573   4.316829   2.499373   0.000000
    20  H    6.001702   4.958824   4.318978   2.513483   0.000000
    21  H    3.887000   7.790063   9.216524   9.112529   7.499231
    22  H    3.416683   8.562867  10.393470  10.503440   8.778433
    23  H    2.137274   7.851309   9.782986   9.919920   8.137342
    24  H    1.090048   6.205468   7.858763   7.783343   5.964823
                   21         22         23         24
    21  H    0.000000
    22  H    2.504073   0.000000
    23  H    4.313208   2.500901   0.000000
    24  H    4.976950   4.322639   2.475350   0.000000
 Symmetry turned off by external request.
 Stoichiometry    C12H8Cl2N2
 Framework group  C1[X(C12H8Cl2N2)]
 Deg. of freedom    66
 Full point group                 C1      NOp   1
 Rotational constants (GHZ):           0.8506734           0.2820037           0.2465392
 Leave Link  202 at Fri Mar  6 17:31:52 2026, MaxMem=  2415919104 cpu:               0.1 elap:               0.1
 (Enter /prod/precompiled/gaussian/16c2/g16/l301.exe)
 Standard basis: def2SVP (5D, 7F)
 Ernie: Thresh=  0.10000D-02 Tol=  0.10000D-05 Strict=F.
   272 basis functions,   480 primitive gaussians,   288 cartesian basis functions
    64 alpha electrons       64 beta electrons
       nuclear repulsion energy      1226.6271808886 Hartrees.
 IExCor= 4639 DFT=T Ex+Corr=wB97XD ExCW=0 ScaHFX=  1.000000
 ScaDFX=  1.000000  1.000000  1.000000  1.000000 ScalE2=  1.000000  1.000000
 IRadAn=      5 IRanWt=     -1 IRanGd=            0 ICorTp=0 IEmpDi=121
 HFx  wShort=  0.000000 wLong=  0.200000 cFull=  0.222036 cShort=  0.000000 cLong=  0.777964
 DFx  wShort=  0.000000 wLong=  0.200000 cFull=  0.000000 cShort=  0.000000 cLong=  1.000000
 NAtoms=   24 NActive=   24 NUniq=   24 SFac= 1.00D+00 NAtFMM=   60 NAOKFM=F Big=F
 Integral buffers will be    131072 words long.
 Raffenetti 2 integral format.
 Two-electron integral symmetry is turned off.
 R6Disp:  Grimme-D2 Dispersion energy=       -0.0145643889 Hartrees.
 Nuclear repulsion after empirical dispersion term =     1226.6126164997 Hartrees.
 Leave Link  301 at Fri Mar  6 17:31:52 2026, MaxMem=  2415919104 cpu:               0.1 elap:               0.1
 (Enter /prod/precompiled/gaussian/16c2/g16/l302.exe)
 NPDir=0 NMtPBC=     1 NCelOv=     1 NCel=       1 NClECP=     1 NCelD=      1
         NCelK=      1 NCelE2=     1 NClLst=     1 CellRange=     0.0.
 One-electron integrals computed using PRISM.
   1 Symmetry operations used in ECPInt.
 ECPInt:  NShTT=    7750 NPrTT=   30142 LenC2=    7118 LenP2D=   19312.
 LDataN:  DoStor=T MaxTD1= 4 Len=   56
 NBasis=   272 RedAO= T EigKep=  2.29D-04  NBF=   272
 NBsUse=   272 1.00D-06 EigRej= -1.00D+00 NBFU=   272
 Precomputing XC quadrature grid using
 IXCGrd= 4 IRadAn=           5 IRanWt=          -1 IRanGd=           0 AccXCQ= 0.00D+00.
 Generated NRdTot=       0 NPtTot=           0 NUsed=           0 NTot=          32
 NSgBfM=   285   285   285   285   285 MxSgAt=    24 MxSgA2=    24.
 Leave Link  302 at Fri Mar  6 17:31:53 2026, MaxMem=  2415919104 cpu:               1.5 elap:               0.3
 (Enter /prod/precompiled/gaussian/16c2/g16/l303.exe)
 DipDrv:  MaxL=1.
 Leave Link  303 at Fri Mar  6 17:31:53 2026, MaxMem=  2415919104 cpu:               0.1 elap:               0.1
 (Enter /prod/precompiled/gaussian/16c2/g16/l401.exe)
 ExpMin= 1.22D-01 ExpMax= 1.04D+04 ExpMxC= 1.57D+03 IAcc=3 IRadAn=         5 AccDes= 0.00D+00
 Harris functional with IExCor= 4639 and IRadAn=       5 diagonalized for initial guess.
 HarFok:  IExCor= 4639 AccDes= 0.00D+00 IRadAn=         5 IDoV= 1 UseB2=F ITyADJ=14
 ICtDFT=  3500011 ScaDFX=  1.000000  1.000000  1.000000  1.000000
 FoFCou: FMM=F IPFlag=           0 FMFlag=      100000 FMFlg1=           0
         NFxFlg=           0 DoJE=T BraDBF=F KetDBF=T FulRan=T
         wScrn=  0.000000 ICntrl=       500 IOpCl=  0 I1Cent=   200000004 NGrid=           0
         NMat0=    1 NMatS0=      1 NMatT0=    0 NMatD0=    1 NMtDS0=    0 NMtDT0=    0
 Symmetry not used in FoFCou.
 Harris En= -1450.78080533250    
 JPrj=0 DoOrth=F DoCkMO=F.
 Leave Link  401 at Fri Mar  6 17:31:54 2026, MaxMem=  2415919104 cpu:               7.5 elap:               0.8
 (Enter /prod/precompiled/gaussian/16c2/g16/l502.exe)
 Two-electron integral symmetry not used.
 Closed shell SCF:
 Using DIIS extrapolation, IDIIS=  1040.
 NGot=  2415919104 LenX=  2415746906 LenY=  2415663521
 Requested convergence on RMS density matrix=1.00D-08 within 200 cycles.
 Requested convergence on MAX density matrix=1.00D-06.
 Requested convergence on             energy=1.00D-06.
 No special actions if energy rises.
 Fock matrices will be formed incrementally for  20 cycles.
 Integral accuracy reduced to 1.0D-05 until final iterations.

 Cycle   1  Pass 0  IDiag  1:
 FoFJK:  IHMeth= 1 ICntrl=       0 DoSepK=T KAlg= 0 I1Cent=           0 FoldK=F
 IRaf=         1 NMat=       1 IRICut=       1 DoRegI=T DoRafI=F ISym2E= 0 IDoP0=0 IntGTp=1.
 FoFCou: FMM=F IPFlag=           0 FMFlag=      100000 FMFlg1=           0
         NFxFlg=           0 DoJE=T BraDBF=F KetDBF=F FulRan=T
         wScrn=  0.000000 ICntrl=       500 IOpCl=  0 I1Cent=           0 NGrid=           0
         NMat0=    1 NMatS0=      1 NMatT0=    0 NMatD0=    1 NMtDS0=    0 NMtDT0=    0
 Symmetry not used in FoFCou.
 E= -1490.42339002614    
 DIIS: error= 3.72D-02 at cycle   1 NSaved=   1.
 NSaved= 1 IEnMin= 1 EnMin= -1490.42339002614     IErMin= 1 ErrMin= 3.72D-02
 ErrMax= 3.72D-02  0.00D+00 EMaxC= 1.00D-01 BMatC= 8.30D-01 BMatP= 8.30D-01
 IDIUse=3 WtCom= 6.28D-01 WtEn= 3.72D-01
 Coeff-Com:  0.100D+01
 Coeff-En:   0.100D+01
 Coeff:      0.100D+01
 Gap=     0.216 Goal=   None    Shift=    0.000
 GapD=    0.216 DampG=1.000 DampE=0.500 DampFc=0.5000 IDamp=-1.
 Damping current iteration by 5.00D-01
 RMSDP=8.45D-03 MaxDP=3.02D-01              OVMax= 8.97D-01

 Cycle   2  Pass 0  IDiag  1:
 RMSU=  4.16D-03    CP:  9.73D-01
 E= -1490.28553206327     Delta-E=        0.137857962867 Rises=F Damp=T
 DIIS: error= 2.06D-02 at cycle   2 NSaved=   2.
 NSaved= 2 IEnMin= 1 EnMin= -1490.42339002614     IErMin= 2 ErrMin= 2.06D-02
 ErrMax= 2.06D-02  0.00D+00 EMaxC= 1.00D-01 BMatC= 2.32D-01 BMatP= 8.30D-01
 IDIUse=3 WtCom= 7.94D-01 WtEn= 2.06D-01
 Coeff-Com:  0.184D+00 0.816D+00
 Coeff-En:   0.599D+00 0.401D+00
 Coeff:      0.270D+00 0.730D+00
 Gap=    -0.267 Goal=   None    Shift=    0.000
 RMSDP=4.03D-03 MaxDP=1.40D-01 DE= 1.38D-01 OVMax= 5.75D-01

 Cycle   3  Pass 0  IDiag  1:
 RMSU=  3.89D-03    CP:  9.60D-01  7.52D-01
 E= -1490.67843281396     Delta-E=       -0.392900750688 Rises=F Damp=F
 DIIS: error= 2.56D-02 at cycle   3 NSaved=   3.
 NSaved= 3 IEnMin= 3 EnMin= -1490.67843281396     IErMin= 2 ErrMin= 2.06D-02
 ErrMax= 2.56D-02  0.00D+00 EMaxC= 1.00D-01 BMatC= 2.45D-01 BMatP= 2.32D-01
 IDIUse=3 WtCom= 7.44D-01 WtEn= 2.56D-01
 Coeff-Com: -0.931D-01 0.546D+00 0.547D+00
 Coeff-En:   0.000D+00 0.224D+00 0.776D+00
 Coeff:     -0.692D-01 0.464D+00 0.605D+00
 Gap=     0.299 Goal=   None    Shift=    0.000
 RMSDP=2.62D-03 MaxDP=8.21D-02 DE=-3.93D-01 OVMax= 2.55D-01

 Cycle   4  Pass 0  IDiag  1:
 RMSU=  2.02D-03    CP:  9.53D-01  8.89D-01  6.00D-01
 E= -1490.97215675529     Delta-E=       -0.293723941328 Rises=F Damp=F
 DIIS: error= 3.30D-03 at cycle   4 NSaved=   4.
 NSaved= 4 IEnMin= 4 EnMin= -1490.97215675529     IErMin= 4 ErrMin= 3.30D-03
 ErrMax= 3.30D-03  0.00D+00 EMaxC= 1.00D-01 BMatC= 5.62D-03 BMatP= 2.32D-01
 IDIUse=3 WtCom= 9.67D-01 WtEn= 3.30D-02
 Coeff-Com: -0.618D-01 0.120D+00 0.119D+00 0.822D+00
 Coeff-En:   0.000D+00 0.000D+00 0.000D+00 0.100D+01
 Coeff:     -0.598D-01 0.116D+00 0.115D+00 0.828D+00
 Gap=     0.203 Goal=   None    Shift=    0.000
 RMSDP=6.10D-04 MaxDP=2.18D-02 DE=-2.94D-01 OVMax= 5.44D-02

 Cycle   5  Pass 0  IDiag  1:
 RMSU=  4.99D-04    CP:  9.50D-01  9.59D-01  6.43D-01  1.03D+00
 E= -1490.98120156861     Delta-E=       -0.009044813319 Rises=F Damp=F
 DIIS: error= 2.36D-03 at cycle   5 NSaved=   5.
 NSaved= 5 IEnMin= 5 EnMin= -1490.98120156861     IErMin= 5 ErrMin= 2.36D-03
 ErrMax= 2.36D-03  0.00D+00 EMaxC= 1.00D-01 BMatC= 1.24D-03 BMatP= 5.62D-03
 IDIUse=3 WtCom= 9.76D-01 WtEn= 2.36D-02
 Coeff-Com: -0.128D-01 0.892D-02-0.214D-01 0.255D+00 0.770D+00
 Coeff-En:   0.000D+00 0.000D+00 0.000D+00 0.000D+00 0.100D+01
 Coeff:     -0.125D-01 0.871D-02-0.209D-01 0.249D+00 0.776D+00
 Gap=     0.215 Goal=   None    Shift=    0.000
 RMSDP=2.90D-04 MaxDP=6.68D-03 DE=-9.04D-03 OVMax= 3.51D-02

 Cycle   6  Pass 0  IDiag  1:
 RMSU=  2.07D-04    CP:  9.49D-01  9.75D-01  6.25D-01  1.12D+00  1.11D+00
 E= -1490.98358093082     Delta-E=       -0.002379362209 Rises=F Damp=F
 DIIS: error= 5.92D-04 at cycle   6 NSaved=   6.
 NSaved= 6 IEnMin= 6 EnMin= -1490.98358093082     IErMin= 6 ErrMin= 5.92D-04
 ErrMax= 5.92D-04  0.00D+00 EMaxC= 1.00D-01 BMatC= 2.32D-04 BMatP= 1.24D-03
 IDIUse=3 WtCom= 9.94D-01 WtEn= 5.92D-03
 Coeff-Com:  0.838D-02-0.168D-01-0.210D-01-0.570D-01 0.287D+00 0.799D+00
 Coeff-En:   0.000D+00 0.000D+00 0.000D+00 0.000D+00 0.000D+00 0.100D+01
 Coeff:      0.833D-02-0.167D-01-0.209D-01-0.567D-01 0.286D+00 0.800D+00
 Gap=     0.222 Goal=   None    Shift=    0.000
 RMSDP=1.41D-04 MaxDP=3.70D-03 DE=-2.38D-03 OVMax= 1.81D-02

 Cycle   7  Pass 0  IDiag  1:
 RMSU=  1.01D-04    CP:  9.49D-01  9.74D-01  6.25D-01  1.13D+00  1.29D+00
                    CP:  1.15D+00
 E= -1490.98402305665     Delta-E=       -0.000442125828 Rises=F Damp=F
 DIIS: error= 4.27D-04 at cycle   7 NSaved=   7.
 NSaved= 7 IEnMin= 7 EnMin= -1490.98402305665     IErMin= 7 ErrMin= 4.27D-04
 ErrMax= 4.27D-04  0.00D+00 EMaxC= 1.00D-01 BMatC= 1.02D-04 BMatP= 2.32D-04
 IDIUse=3 WtCom= 9.96D-01 WtEn= 4.27D-03
 Coeff-Com:  0.703D-02-0.116D-01 0.183D-02-0.603D-01-0.663D-02 0.340D+00
 Coeff-Com:  0.729D+00
 Coeff-En:   0.000D+00 0.000D+00 0.000D+00 0.000D+00 0.000D+00 0.000D+00
 Coeff-En:   0.100D+01
 Coeff:      0.700D-02-0.115D-01 0.182D-02-0.600D-01-0.661D-02 0.339D+00
 Coeff:      0.730D+00
 Gap=     0.223 Goal=   None    Shift=    0.000
 RMSDP=6.54D-05 MaxDP=1.84D-03 DE=-4.42D-04 OVMax= 5.24D-03

 Cycle   8  Pass 0  IDiag  1:
 RMSU=  3.96D-05    CP:  9.49D-01  9.71D-01  6.28D-01  1.13D+00  1.33D+00
                    CP:  1.34D+00  1.20D+00
 E= -1490.98414345739     Delta-E=       -0.000120400747 Rises=F Damp=F
 DIIS: error= 3.19D-04 at cycle   8 NSaved=   8.
 NSaved= 8 IEnMin= 8 EnMin= -1490.98414345739     IErMin= 8 ErrMin= 3.19D-04
 ErrMax= 3.19D-04  0.00D+00 EMaxC= 1.00D-01 BMatC= 2.64D-05 BMatP= 1.02D-04
 IDIUse=3 WtCom= 9.97D-01 WtEn= 3.19D-03
 Coeff-Com:  0.112D-02-0.189D-02 0.113D-01-0.268D-02-0.785D-01-0.753D-01
 Coeff-Com:  0.290D+00 0.856D+00
 Coeff-En:   0.000D+00 0.000D+00 0.000D+00 0.000D+00 0.000D+00 0.000D+00
 Coeff-En:   0.000D+00 0.100D+01
 Coeff:      0.112D-02-0.188D-02 0.112D-01-0.267D-02-0.782D-01-0.751D-01
 Coeff:      0.289D+00 0.857D+00
 Gap=     0.223 Goal=   None    Shift=    0.000
 RMSDP=4.18D-05 MaxDP=1.12D-03 DE=-1.20D-04 OVMax= 2.59D-03

 Cycle   9  Pass 0  IDiag  1:
 RMSU=  2.07D-05    CP:  9.49D-01  9.68D-01  6.32D-01  1.13D+00  1.34D+00
                    CP:  1.43D+00  1.44D+00  1.19D+00
 E= -1490.98418057036     Delta-E=       -0.000037112966 Rises=F Damp=F
 DIIS: error= 8.50D-05 at cycle   9 NSaved=   9.
 NSaved= 9 IEnMin= 9 EnMin= -1490.98418057036     IErMin= 9 ErrMin= 8.50D-05
 ErrMax= 8.50D-05  0.00D+00 EMaxC= 1.00D-01 BMatC= 3.04D-06 BMatP= 2.64D-05
 IDIUse=1 WtCom= 1.00D+00 WtEn= 0.00D+00
 Coeff-Com: -0.462D-03 0.429D-03 0.378D-02 0.105D-01-0.213D-01-0.776D-01
 Coeff-Com: -0.468D-01 0.351D+00 0.780D+00
 Coeff:     -0.462D-03 0.429D-03 0.378D-02 0.105D-01-0.213D-01-0.776D-01
 Coeff:     -0.468D-01 0.351D+00 0.780D+00
 Gap=     0.223 Goal=   None    Shift=    0.000
 RMSDP=1.40D-05 MaxDP=2.25D-04 DE=-3.71D-05 OVMax= 9.01D-04

 Cycle  10  Pass 0  IDiag  1:
 RMSU=  8.34D-06    CP:  9.49D-01  9.67D-01  6.32D-01  1.13D+00  1.34D+00
                    CP:  1.45D+00  1.51D+00  1.35D+00  9.89D-01
 E= -1490.98418502406     Delta-E=       -0.000004453702 Rises=F Damp=F
 DIIS: error= 2.59D-05 at cycle  10 NSaved=  10.
 NSaved=10 IEnMin=10 EnMin= -1490.98418502406     IErMin=10 ErrMin= 2.59D-05
 ErrMax= 2.59D-05  0.00D+00 EMaxC= 1.00D-01 BMatC= 3.12D-07 BMatP= 3.04D-06
 IDIUse=1 WtCom= 1.00D+00 WtEn= 0.00D+00
 Coeff-Com: -0.188D-03 0.303D-03-0.423D-03 0.293D-02 0.345D-02-0.792D-02
 Coeff-Com: -0.488D-01 0.131D-01 0.277D+00 0.761D+00
 Coeff:     -0.188D-03 0.303D-03-0.423D-03 0.293D-02 0.345D-02-0.792D-02
 Coeff:     -0.488D-01 0.131D-01 0.277D+00 0.761D+00
 Gap=     0.223 Goal=   None    Shift=    0.000
 RMSDP=4.28D-06 MaxDP=8.56D-05 DE=-4.45D-06 OVMax= 3.05D-04

 Initial convergence to 1.0D-05 achieved.  Increase integral accuracy.
 Cycle  11  Pass 1  IDiag  1:
 E= -1490.98410516474     Delta-E=        0.000079859318 Rises=F Damp=F
 DIIS: error= 7.34D-05 at cycle   1 NSaved=   1.
 NSaved= 1 IEnMin= 1 EnMin= -1490.98410516474     IErMin= 1 ErrMin= 7.34D-05
 ErrMax= 7.34D-05  0.00D+00 EMaxC= 1.00D-01 BMatC= 9.60D-07 BMatP= 9.60D-07
 IDIUse=1 WtCom= 1.00D+00 WtEn= 0.00D+00
 Coeff-Com:  0.100D+01
 Coeff:      0.100D+01
 Gap=     0.223 Goal=   None    Shift=    0.000
 RMSDP=4.28D-06 MaxDP=8.56D-05 DE= 7.99D-05 OVMax= 2.88D-04

 Cycle  12  Pass 1  IDiag  1:
 RMSU=  8.42D-05    CP:  1.00D+00
 E= -1490.98410610299     Delta-E=       -0.000000938247 Rises=F Damp=F
 DIIS: error= 9.51D-06 at cycle   2 NSaved=   2.
 NSaved= 2 IEnMin= 2 EnMin= -1490.98410610299     IErMin= 2 ErrMin= 9.51D-06
 ErrMax= 9.51D-06  0.00D+00 EMaxC= 1.00D-01 BMatC= 5.47D-08 BMatP= 9.60D-07
 IDIUse=1 WtCom= 1.00D+00 WtEn= 0.00D+00
 Coeff-Com:  0.442D-01 0.956D+00
 Coeff:      0.442D-01 0.956D+00
 Gap=     0.223 Goal=   None    Shift=    0.000
 RMSDP=5.21D-06 MaxDP=9.03D-05 DE=-9.38D-07 OVMax= 1.40D-04

 Cycle  13  Pass 1  IDiag  1:
 RMSU=  2.44D-06    CP:  1.00D+00  1.05D+00
 E= -1490.98410613789     Delta-E=       -0.000000034897 Rises=F Damp=F
 DIIS: error= 8.10D-06 at cycle   3 NSaved=   3.
 NSaved= 3 IEnMin= 3 EnMin= -1490.98410613789     IErMin= 3 ErrMin= 8.10D-06
 ErrMax= 8.10D-06  0.00D+00 EMaxC= 1.00D-01 BMatC= 4.89D-08 BMatP= 5.47D-08
 IDIUse=1 WtCom= 1.00D+00 WtEn= 0.00D+00
 Coeff-Com: -0.297D-01 0.493D+00 0.537D+00
 Coeff:     -0.297D-01 0.493D+00 0.537D+00
 Gap=     0.223 Goal=   None    Shift=    0.000
 RMSDP=1.29D-06 MaxDP=3.26D-05 DE=-3.49D-08 OVMax= 9.50D-05

 Cycle  14  Pass 1  IDiag  1:
 RMSU=  9.95D-07    CP:  1.00D+00  1.06D+00  7.82D-01
 E= -1490.98410619465     Delta-E=       -0.000000056757 Rises=F Damp=F
 DIIS: error= 1.89D-06 at cycle   4 NSaved=   4.
 NSaved= 4 IEnMin= 4 EnMin= -1490.98410619465     IErMin= 4 ErrMin= 1.89D-06
 ErrMax= 1.89D-06  0.00D+00 EMaxC= 1.00D-01 BMatC= 1.65D-09 BMatP= 4.89D-08
 IDIUse=1 WtCom= 1.00D+00 WtEn= 0.00D+00
 Coeff-Com: -0.105D-01 0.818D-01 0.142D+00 0.787D+00
 Coeff:     -0.105D-01 0.818D-01 0.142D+00 0.787D+00
 Gap=     0.223 Goal=   None    Shift=    0.000
 RMSDP=4.54D-07 MaxDP=1.27D-05 DE=-5.68D-08 OVMax= 5.80D-05

 Cycle  15  Pass 1  IDiag  1:
 RMSU=  3.58D-07    CP:  1.00D+00  1.06D+00  8.56D-01  1.20D+00
 E= -1490.98410620126     Delta-E=       -0.000000006611 Rises=F Damp=F
 DIIS: error= 1.27D-06 at cycle   5 NSaved=   5.
 NSaved= 5 IEnMin= 5 EnMin= -1490.98410620126     IErMin= 5 ErrMin= 1.27D-06
 ErrMax= 1.27D-06  0.00D+00 EMaxC= 1.00D-01 BMatC= 6.07D-10 BMatP= 1.65D-09
 IDIUse=1 WtCom= 1.00D+00 WtEn= 0.00D+00
 Coeff-Com:  0.710D-02-0.145D+00-0.141D+00 0.217D+00 0.106D+01
 Coeff:      0.710D-02-0.145D+00-0.141D+00 0.217D+00 0.106D+01
 Gap=     0.223 Goal=   None    Shift=    0.000
 RMSDP=5.20D-07 MaxDP=1.63D-05 DE=-6.61D-09 OVMax= 7.87D-05

 Cycle  16  Pass 1  IDiag  1:
 RMSU=  2.49D-07    CP:  1.00D+00  1.06D+00  9.26D-01  1.54D+00  1.70D+00
 E= -1490.98410620631     Delta-E=       -0.000000005054 Rises=F Damp=F
 DIIS: error= 8.59D-07 at cycle   6 NSaved=   6.
 NSaved= 6 IEnMin= 6 EnMin= -1490.98410620631     IErMin= 6 ErrMin= 8.59D-07
 ErrMax= 8.59D-07  0.00D+00 EMaxC= 1.00D-01 BMatC= 2.14D-10 BMatP= 6.07D-10
 IDIUse=1 WtCom= 1.00D+00 WtEn= 0.00D+00
 Coeff-Com:  0.541D-02-0.828D-01-0.894D-01-0.709D-01 0.452D+00 0.786D+00
 Coeff:      0.541D-02-0.828D-01-0.894D-01-0.709D-01 0.452D+00 0.786D+00
 Gap=     0.223 Goal=   None    Shift=    0.000
 RMSDP=2.79D-07 MaxDP=1.17D-05 DE=-5.05D-09 OVMax= 4.59D-05

 Cycle  17  Pass 1  IDiag  1:
 RMSU=  1.02D-07    CP:  1.00D+00  1.06D+00  9.58D-01  1.68D+00  2.14D+00
                    CP:  1.53D+00
 E= -1490.98410620796     Delta-E=       -0.000000001650 Rises=F Damp=F
 DIIS: error= 6.08D-07 at cycle   7 NSaved=   7.
 NSaved= 7 IEnMin= 7 EnMin= -1490.98410620796     IErMin= 7 ErrMin= 6.08D-07
 ErrMax= 6.08D-07  0.00D+00 EMaxC= 1.00D-01 BMatC= 8.65D-11 BMatP= 2.14D-10
 IDIUse=1 WtCom= 1.00D+00 WtEn= 0.00D+00
 Coeff-Com: -0.549D-03 0.229D-01 0.228D-01-0.115D+00-0.261D+00 0.326D+00
 Coeff-Com:  0.100D+01
 Coeff:     -0.549D-03 0.229D-01 0.228D-01-0.115D+00-0.261D+00 0.326D+00
 Coeff:      0.100D+01
 Gap=     0.223 Goal=   None    Shift=    0.000
 RMSDP=2.68D-07 MaxDP=1.04D-05 DE=-1.65D-09 OVMax= 4.52D-05

 Cycle  18  Pass 1  IDiag  1:
 RMSU=  7.63D-08    CP:  1.00D+00  1.06D+00  9.84D-01  1.77D+00  2.58D+00
                    CP:  2.16D+00  1.59D+00
 E= -1490.98410620897     Delta-E=       -0.000000001011 Rises=F Damp=F
 DIIS: error= 3.63D-07 at cycle   8 NSaved=   8.
 NSaved= 8 IEnMin= 8 EnMin= -1490.98410620897     IErMin= 8 ErrMin= 3.63D-07
 ErrMax= 3.63D-07  0.00D+00 EMaxC= 1.00D-01 BMatC= 3.37D-11 BMatP= 8.65D-11
 IDIUse=1 WtCom= 1.00D+00 WtEn= 0.00D+00
 Coeff-Com: -0.224D-02 0.412D-01 0.449D-01-0.259D-01-0.293D+00-0.139D+00
 Coeff-Com:  0.470D+00 0.903D+00
 Coeff:     -0.224D-02 0.412D-01 0.449D-01-0.259D-01-0.293D+00-0.139D+00
 Coeff:      0.470D+00 0.903D+00
 Gap=     0.223 Goal=   None    Shift=    0.000
 RMSDP=1.80D-07 MaxDP=7.35D-06 DE=-1.01D-09 OVMax= 3.13D-05

 Cycle  19  Pass 1  IDiag  1:
 RMSU=  4.13D-08    CP:  1.00D+00  1.06D+00  9.96D-01  1.84D+00  2.84D+00
                    CP:  2.57D+00  2.21D+00  1.64D+00
 E= -1490.98410620938     Delta-E=       -0.000000000413 Rises=F Damp=F
 DIIS: error= 2.08D-07 at cycle   9 NSaved=   9.
 NSaved= 9 IEnMin= 9 EnMin= -1490.98410620938     IErMin= 9 ErrMin= 2.08D-07
 ErrMax= 2.08D-07  0.00D+00 EMaxC= 1.00D-01 BMatC= 9.48D-12 BMatP= 3.37D-11
 IDIUse=1 WtCom= 1.00D+00 WtEn= 0.00D+00
 Coeff-Com: -0.512D-04-0.529D-02-0.478D-02 0.437D-01 0.817D-01-0.154D+00
 Coeff-Com: -0.414D+00 0.899D-01 0.136D+01
 Coeff:     -0.512D-04-0.529D-02-0.478D-02 0.437D-01 0.817D-01-0.154D+00
 Coeff:     -0.414D+00 0.899D-01 0.136D+01
 Gap=     0.223 Goal=   None    Shift=    0.000
 RMSDP=1.61D-07 MaxDP=6.06D-06 DE=-4.13D-10 OVMax= 2.83D-05

 Cycle  20  Pass 1  IDiag  1:
 RMSU=  2.88D-08    CP:  1.00D+00  1.06D+00  1.01D+00  1.89D+00  3.00D+00
                    CP:  2.92D+00  2.79D+00  2.48D+00  1.76D+00
 E= -1490.98410620959     Delta-E=       -0.000000000206 Rises=F Damp=F
 DIIS: error= 6.22D-08 at cycle  10 NSaved=  10.
 NSaved=10 IEnMin=10 EnMin= -1490.98410620959     IErMin=10 ErrMin= 6.22D-08
 ErrMax= 6.22D-08  0.00D+00 EMaxC= 1.00D-01 BMatC= 2.47D-12 BMatP= 9.48D-12
 IDIUse=1 WtCom= 1.00D+00 WtEn= 0.00D+00
 Coeff-Com:  0.541D-03-0.129D-01-0.137D-01 0.258D-01 0.111D+00-0.285D-01
 Coeff-Com: -0.311D+00-0.200D+00 0.582D+00 0.847D+00
 Coeff:      0.541D-03-0.129D-01-0.137D-01 0.258D-01 0.111D+00-0.285D-01
 Coeff:     -0.311D+00-0.200D+00 0.582D+00 0.847D+00
 Gap=     0.223 Goal=   None    Shift=    0.000
 RMSDP=6.14D-08 MaxDP=2.31D-06 DE=-2.06D-10 OVMax= 1.07D-05

 Cycle  21  Pass 1  IDiag  1:
 RMSU=  2.16D-08    CP:  1.00D+00  1.06D+00  1.01D+00  1.91D+00  3.00D+00
                    CP:  3.00D+00  2.99D+00  2.85D+00  2.16D+00  1.83D+00
 E= -1490.98410620965     Delta-E=       -0.000000000062 Rises=F Damp=F
 DIIS: error= 2.07D-08 at cycle  11 NSaved=  11.
 NSaved=11 IEnMin=11 EnMin= -1490.98410620965     IErMin=11 ErrMin= 2.07D-08
 ErrMax= 2.07D-08  0.00D+00 EMaxC= 1.00D-01 BMatC= 2.52D-13 BMatP= 2.47D-12
 IDIUse=1 WtCom= 1.00D+00 WtEn= 0.00D+00
 Coeff-Com:  0.149D-03-0.237D-02-0.284D-02-0.512D-03 0.134D-01 0.188D-01
 Coeff-Com: -0.310D-02-0.650D-01-0.864D-01 0.196D+00 0.932D+00
 Coeff:      0.149D-03-0.237D-02-0.284D-02-0.512D-03 0.134D-01 0.188D-01
 Coeff:     -0.310D-02-0.650D-01-0.864D-01 0.196D+00 0.932D+00
 Gap=     0.223 Goal=   None    Shift=    0.000
 RMSDP=1.38D-08 MaxDP=4.72D-07 DE=-6.18D-11 OVMax= 2.23D-06

 Cycle  22  Pass 1  IDiag  1:
 RMSU=  5.36D-09    CP:  1.00D+00  1.06D+00  1.01D+00  1.91D+00  3.00D+00
                    CP:  3.00D+00  3.00D+00  2.92D+00  2.28D+00  2.11D+00
                    CP:  1.17D+00
 E= -1490.98410620962     Delta-E=        0.000000000036 Rises=F Damp=F
 DIIS: error= 1.04D-08 at cycle  12 NSaved=  12.
 NSaved=12 IEnMin=11 EnMin= -1490.98410620965     IErMin=12 ErrMin= 1.04D-08
 ErrMax= 1.04D-08  0.00D+00 EMaxC= 1.00D-01 BMatC= 4.26D-14 BMatP= 2.52D-13
 IDIUse=1 WtCom= 1.00D+00 WtEn= 0.00D+00
 Coeff-Com: -0.310D-04 0.114D-02 0.102D-02-0.380D-02-0.125D-01 0.107D-01
 Coeff-Com:  0.465D-01 0.762D-02-0.117D+00-0.567D-01 0.315D+00 0.808D+00
 Coeff:     -0.310D-04 0.114D-02 0.102D-02-0.380D-02-0.125D-01 0.107D-01
 Coeff:      0.465D-01 0.762D-02-0.117D+00-0.567D-01 0.315D+00 0.808D+00
 Gap=     0.223 Goal=   None    Shift=    0.000
 RMSDP=3.01D-09 MaxDP=7.86D-08 DE= 3.64D-11 OVMax= 3.82D-07

 SCF Done:  E(RwB97XD) =  -1490.98410621     A.U. after   22 cycles
            NFock= 22  Conv=0.30D-08     -V/T= 2.0053
 KE= 1.483120914321D+03 PE=-5.963353879921D+03 EE= 1.762636242890D+03
 Leave Link  502 at Fri Mar  6 17:32:18 2026, MaxMem=  2415919104 cpu:             261.4 elap:              24.5
 (Enter /prod/precompiled/gaussian/16c2/g16/l508.exe)
 QCSCF skips out because SCF is already converged.
 Leave Link  508 at Fri Mar  6 17:32:19 2026, MaxMem=  2415919104 cpu:               0.1 elap:               0.1
 (Enter /prod/precompiled/gaussian/16c2/g16/l801.exe)
 DoSCS=F DFT=T ScalE2(SS,OS)=  1.000000  1.000000
 Range of M.O.s used for correlation:     1   272
 NBasis=   272 NAE=    64 NBE=    64 NFC=     0 NFV=     0
 NROrb=    272 NOA=    64 NOB=    64 NVA=   208 NVB=   208

 **** Warning!!: The largest alpha MO coefficient is  0.13932307D+02

 Leave Link  801 at Fri Mar  6 17:32:19 2026, MaxMem=  2415919104 cpu:               0.1 elap:               0.3
 (Enter /prod/precompiled/gaussian/16c2/g16/l1101.exe)
 Using compressed storage, NAtomX=    24.
 Will process     25 centers per pass.
   1 Symmetry operations used in ECPInt.
 ECPInt:  NShTT=    7750 NPrTT=   30142 LenC2=    7118 LenP2D=   19312.
 LDataN:  DoStor=T MaxTD1= 5 Len=  102
 R6Disp: Adding Grimme-D2 dispersion energy 1st derivatives to the gradient.
 Leave Link 1101 at Fri Mar  6 17:32:20 2026, MaxMem=  2415919104 cpu:               1.7 elap:               0.3
 (Enter /prod/precompiled/gaussian/16c2/g16/l1102.exe)
 Symmetrizing basis deriv contribution to polar:
 IMax=3 JMax=2 DiffMx= 0.00D+00
 Leave Link 1102 at Fri Mar  6 17:32:20 2026, MaxMem=  2415919104 cpu:               0.2 elap:               0.1
 (Enter /prod/precompiled/gaussian/16c2/g16/l1110.exe)
 Forming Gx(P) for the SCF density, NAtomX=    24.
 Integral derivatives from FoFJK, PRISM(SPDF).
 Do as many integral derivatives as possible in FoFJK.
 G2DrvN: MDV=    2415916544.
 G2DrvN: will do    25 centers at a time, making    1 passes.
 Calling FoFCou, ICntrl=  3107 FMM=F I1Cent=   0 AccDes= 0.00D+00.
 FoFJK:  IHMeth= 1 ICntrl=    3107 DoSepK=T KAlg= 0 I1Cent=           0 FoldK=F
 IRaf=         1 NMat=       1 IRICut=       1 DoRegI=T DoRafI=F ISym2E= 0 IDoP0=0 IntGTp=1.
 FoFCou: FMM=F IPFlag=           0 FMFlag=      100000 FMFlg1=           0
         NFxFlg=           0 DoJE=F BraDBF=F KetDBF=F FulRan=T
         wScrn=  0.000000 ICntrl=      3507 IOpCl=  0 I1Cent=           0 NGrid=           0
         NMat0=    1 NMatS0=      1 NMatT0=    0 NMatD0=    1 NMtDS0=    0 NMtDT0=    0
 Symmetry not used in FoFCou.
 End of G2Drv F.D. properties file   721 does not exist.
 End of G2Drv F.D. properties file   722 does not exist.
 End of G2Drv F.D. properties file   788 does not exist.
 Leave Link 1110 at Fri Mar  6 17:32:44 2026, MaxMem=  2415919104 cpu:             250.6 elap:              23.6
 (Enter /prod/precompiled/gaussian/16c2/g16/l1002.exe)
 Minotr:  Closed shell wavefunction.
          IDoAtm=111111111111111111111111
          Direct CPHF calculation.
          Differentiating once with respect to electric field.
                with respect to dipole field.
          Differentiating once with respect to nuclear coordinates.
          Requested convergence is 1.0D-08 RMS, and 1.0D-07 maximum.
          Secondary convergence is 1.0D-12 RMS, and 1.0D-12 maximum.
          NewPWx=T KeepS1=F KeepF1=F KeepIn=T MapXYZ=F SortEE=F KeepMc=T.
         7195 words used for storage of precomputed grid.
 Keep R1 ints in memory in canonical form, NReq=1402150885.
 FoFCou: FMM=F IPFlag=           0 FMFlag=           0 FMFlg1=           0
         NFxFlg=           0 DoJE=F BraDBF=F KetDBF=F FulRan=T
         wScrn=  0.000000 ICntrl=       600 IOpCl=  0 I1Cent=           0 NGrid=           0
         NMat0=    1 NMatS0=  37128 NMatT0=    0 NMatD0=    1 NMtDS0=    0 NMtDT0=    0
 Symmetry not used in FoFCou.
 Two-electron integral symmetry not used.
          MDV=    2415919104 using IRadAn=       1.
          Solving linear equations simultaneously, MaxMat=       0.
          There are    75 degrees of freedom in the 1st order CPHF.  IDoFFX=6 NUNeed=     3.
     72 vectors produced by pass  0 Test12= 1.77D-14 1.33D-09 XBig12= 1.45D+02 5.41D+00.
 AX will form    72 AO Fock derivatives at one time.
     72 vectors produced by pass  1 Test12= 1.77D-14 1.33D-09 XBig12= 1.22D+01 6.05D-01.
     72 vectors produced by pass  2 Test12= 1.77D-14 1.33D-09 XBig12= 5.14D-01 8.33D-02.
     72 vectors produced by pass  3 Test12= 1.77D-14 1.33D-09 XBig12= 8.25D-03 9.46D-03.
     72 vectors produced by pass  4 Test12= 1.77D-14 1.33D-09 XBig12= 8.61D-05 1.00D-03.
     72 vectors produced by pass  5 Test12= 1.77D-14 1.33D-09 XBig12= 5.24D-07 7.32D-05.
     66 vectors produced by pass  6 Test12= 1.77D-14 1.33D-09 XBig12= 2.88D-09 7.14D-06.
     46 vectors produced by pass  7 Test12= 1.77D-14 1.33D-09 XBig12= 1.44D-11 4.08D-07.
      3 vectors produced by pass  8 Test12= 1.77D-14 1.33D-09 XBig12= 7.19D-14 2.54D-08.
      2 vectors produced by pass  9 Test12= 1.77D-14 1.33D-09 XBig12= 3.58D-16 2.08D-09.
 InvSVY:  IOpt=1 It=  1 EMax= 2.05D-15
 Solved reduced A of dimension   549 with    75 vectors.
 FullF1:  Do perturbations      1 to       3.
 Isotropic polarizability for W=    0.000000      169.91 Bohr**3.
 End of Minotr F.D. properties file   721 does not exist.
 End of Minotr F.D. properties file   722 does not exist.
 End of Minotr F.D. properties file   788 does not exist.
 Leave Link 1002 at Fri Mar  6 17:33:32 2026, MaxMem=  2415919104 cpu:             520.4 elap:              47.9
 (Enter /prod/precompiled/gaussian/16c2/g16/l601.exe)
 Copying SCF densities to generalized density rwf, IOpCl= 0 IROHF=0.

 **********************************************************************

            Population analysis using the SCF Density.

 **********************************************************************

 Alpha  occ. eigenvalues -- -101.69466-101.67285 -14.54631 -14.51910 -10.38539
 Alpha  occ. eigenvalues --  -10.38034 -10.35865 -10.35026 -10.33468 -10.33346
 Alpha  occ. eigenvalues --  -10.33275 -10.32888 -10.30883 -10.30492 -10.30343
 Alpha  occ. eigenvalues --  -10.29164  -9.60208  -9.58050  -7.35607  -7.34623
 Alpha  occ. eigenvalues --   -7.34572  -7.33437  -7.32456  -7.32445  -1.16988
 Alpha  occ. eigenvalues --   -1.01446  -0.99796  -0.95676  -0.93766  -0.91566
 Alpha  occ. eigenvalues --   -0.87456  -0.84748  -0.82683  -0.78335  -0.74354
 Alpha  occ. eigenvalues --   -0.72602  -0.70276  -0.66839  -0.65093  -0.60688
 Alpha  occ. eigenvalues --   -0.59428  -0.58402  -0.57737  -0.55210  -0.54244
 Alpha  occ. eigenvalues --   -0.53613  -0.52839  -0.52445  -0.51057  -0.48804
 Alpha  occ. eigenvalues --   -0.48049  -0.47724  -0.45978  -0.45509  -0.43775
 Alpha  occ. eigenvalues --   -0.43475  -0.41822  -0.40812  -0.39019  -0.36690
 Alpha  occ. eigenvalues --   -0.35688  -0.34050  -0.32286  -0.25056
 Alpha virt. eigenvalues --   -0.02733   0.03269   0.05888   0.06489   0.07791
 Alpha virt. eigenvalues --    0.10608   0.12123   0.15152   0.17140   0.17559
 Alpha virt. eigenvalues --    0.19016   0.20765   0.21185   0.21853   0.22178
 Alpha virt. eigenvalues --    0.23384   0.23556   0.25504   0.29824   0.32518
 Alpha virt. eigenvalues --    0.33429   0.34286   0.35038   0.35845   0.36344
 Alpha virt. eigenvalues --    0.37223   0.38917   0.40264   0.41143   0.44967
 Alpha virt. eigenvalues --    0.45814   0.46286   0.47117   0.49415   0.50116
 Alpha virt. eigenvalues --    0.51339   0.52129   0.52689   0.53200   0.53919
 Alpha virt. eigenvalues --    0.55213   0.55435   0.55750   0.57629   0.58559
 Alpha virt. eigenvalues --    0.59689   0.59781   0.60181   0.61359   0.62351
 Alpha virt. eigenvalues --    0.64074   0.65440   0.65935   0.67672   0.67945
 Alpha virt. eigenvalues --    0.69503   0.69603   0.71322   0.72286   0.73105
 Alpha virt. eigenvalues --    0.73489   0.74196   0.74313   0.74916   0.76531
 Alpha virt. eigenvalues --    0.77218   0.77496   0.78223   0.78740   0.79048
 Alpha virt. eigenvalues --    0.79514   0.80489   0.80999   0.82573   0.82950
 Alpha virt. eigenvalues --    0.83686   0.85680   0.86629   0.87337   0.88451
 Alpha virt. eigenvalues --    0.88820   0.89437   0.90766   0.91608   0.92182
 Alpha virt. eigenvalues --    0.94063   0.94230   0.95645   0.95977   0.98977
 Alpha virt. eigenvalues --    1.02069   1.02702   1.02999   1.05178   1.06832
 Alpha virt. eigenvalues --    1.10063   1.11426   1.13644   1.15863   1.18978
 Alpha virt. eigenvalues --    1.21742   1.23004   1.24384   1.24943   1.28300
 Alpha virt. eigenvalues --    1.30196   1.31378   1.31712   1.32475   1.32673
 Alpha virt. eigenvalues --    1.34690   1.35372   1.35631   1.36570   1.37000
 Alpha virt. eigenvalues --    1.38998   1.39280   1.45573   1.48498   1.50386
 Alpha virt. eigenvalues --    1.55939   1.58046   1.58390   1.59311   1.63202
 Alpha virt. eigenvalues --    1.67490   1.72790   1.74569   1.76231   1.77077
 Alpha virt. eigenvalues --    1.79130   1.79652   1.80195   1.82107   1.83159
 Alpha virt. eigenvalues --    1.83540   1.84185   1.84774   1.85123   1.86898
 Alpha virt. eigenvalues --    1.88604   1.89066   1.89906   1.92323   1.95482
 Alpha virt. eigenvalues --    1.97931   1.98244   2.00133   2.01063   2.01631
 Alpha virt. eigenvalues --    2.03236   2.04011   2.06321   2.07541   2.09935
 Alpha virt. eigenvalues --    2.11401   2.12752   2.15901   2.16612   2.18478
 Alpha virt. eigenvalues --    2.20567   2.21195   2.22722   2.25086   2.29066
 Alpha virt. eigenvalues --    2.30086   2.31348   2.33731   2.34046   2.34230
 Alpha virt. eigenvalues --    2.36802   2.37915   2.38447   2.39299   2.40048
 Alpha virt. eigenvalues --    2.42122   2.46364   2.50066   2.52091   2.58242
 Alpha virt. eigenvalues --    2.63066   2.64571   2.68311   2.68426   2.68876
 Alpha virt. eigenvalues --    2.70573   2.72876   2.75903   2.78335   2.81062
 Alpha virt. eigenvalues --    2.81501   2.81962   2.87832   2.89440   2.91366
 Alpha virt. eigenvalues --    2.92420   2.95272   3.04889   3.08350   3.13229
 Alpha virt. eigenvalues --    3.15612   3.20220   3.24112   3.39981   3.46144
 Alpha virt. eigenvalues --    3.60550   3.66533   3.88215
          Condensed to atoms (all electrons):
               1          2          3          4          5          6
     1  C    5.213892   0.180462  -0.060472   0.084769  -0.137965   0.093159
     2  C    0.180462   5.302601   0.259808   0.336574   0.086502  -0.149076
     3  Cl  -0.060472   0.259808  16.904911  -0.056512   0.002555   0.000702
     4  C    0.084769   0.336574  -0.056512   4.978944   0.311223   0.075393
     5  C   -0.137965   0.086502   0.002555   0.311223   5.043636   0.277834
     6  C    0.093159  -0.149076   0.000702   0.075393   0.277834   5.096061
     7  C    0.359854   0.037863   0.001417  -0.102246   0.074681   0.280115
     8  N    0.352375  -0.063659  -0.005590   0.003780  -0.000214   0.007560
     9  N   -0.084821  -0.007667  -0.001346  -0.000945   0.000049  -0.000412
    10  C   -0.001101  -0.000265  -0.007182  -0.000024  -0.000006   0.000005
    11  C    0.000630   0.000334   0.000804   0.000019   0.000001   0.000000
    12  Cl   0.004496   0.000525  -0.000003  -0.000070   0.000003  -0.000024
    13  C   -0.000010  -0.000005  -0.000456  -0.000000   0.000000  -0.000000
    14  C   -0.000003   0.000001   0.000136   0.000000  -0.000000   0.000000
    15  C    0.000013  -0.000001  -0.000929  -0.000000   0.000000   0.000000
    16  C    0.000546   0.000106   0.010196   0.000015  -0.000000  -0.000000
    17  H    0.016050  -0.062913   0.002416   0.439481  -0.057482   0.012363
    18  H   -0.001768   0.013804  -0.000114  -0.059669   0.444960  -0.063382
    19  H    0.012799  -0.001361   0.000007   0.011892  -0.063738   0.449352
    20  H   -0.061879   0.021408  -0.000047  -0.003063   0.012470  -0.068807
    21  H   -0.000001  -0.000000  -0.000001   0.000000  -0.000000   0.000000
    22  H    0.000000  -0.000000   0.000000  -0.000000  -0.000000  -0.000000
    23  H   -0.000000   0.000000  -0.000014  -0.000000  -0.000000   0.000000
    24  H   -0.000084  -0.000050   0.002043   0.000003  -0.000000   0.000000
               7          8          9         10         11         12
     1  C    0.359854   0.352375  -0.084821  -0.001101   0.000630   0.004496
     2  C    0.037863  -0.063659  -0.007667  -0.000265   0.000334   0.000525
     3  Cl   0.001417  -0.005590  -0.001346  -0.007182   0.000804  -0.000003
     4  C   -0.102246   0.003780  -0.000945  -0.000024   0.000019  -0.000070
     5  C    0.074681  -0.000214   0.000049  -0.000006   0.000001   0.000003
     6  C    0.280115   0.007560  -0.000412   0.000005   0.000000  -0.000024
     7  C    5.034395  -0.074320   0.006891  -0.000265  -0.000060  -0.000510
     8  N   -0.074320   6.541839   0.304524  -0.057204   0.003643  -0.002086
     9  N    0.006891   0.304524   6.615930   0.366590  -0.072366  -0.001829
    10  C   -0.000265  -0.057204   0.366590   5.102176   0.240228  -0.066998
    11  C   -0.000060   0.003643  -0.072366   0.240228   5.254871   0.242449
    12  Cl  -0.000510  -0.002086  -0.001829  -0.066998   0.242449  16.963069
    13  C   -0.000001  -0.000044   0.005843   0.081799   0.367049  -0.041640
    14  C    0.000000  -0.000005  -0.000004  -0.134108   0.075642   0.002279
    15  C    0.000000  -0.000020   0.008094   0.102750  -0.159482   0.000654
    16  C    0.000007   0.003298  -0.066620   0.293627   0.092889   0.001768
    17  H   -0.002048  -0.000081   0.000040   0.000010  -0.000002   0.000000
    18  H    0.012374   0.000005   0.000000   0.000000  -0.000000   0.000000
    19  H   -0.062135  -0.000111   0.000005  -0.000000  -0.000000   0.000000
    20  H    0.435764   0.004482   0.000314   0.000009  -0.000006   0.000053
    21  H    0.000000   0.000001  -0.000073   0.016830  -0.066834   0.000426
    22  H   -0.000000  -0.000000   0.000004  -0.001912   0.014748  -0.000100
    23  H   -0.000000  -0.000000  -0.000116   0.014388  -0.001142   0.000006
    24  H    0.000003   0.000973  -0.010371  -0.076109   0.016207  -0.000086
              13         14         15         16         17         18
     1  C   -0.000010  -0.000003   0.000013   0.000546   0.016050  -0.001768
     2  C   -0.000005   0.000001  -0.000001   0.000106  -0.062913   0.013804
     3  Cl  -0.000456   0.000136  -0.000929   0.010196   0.002416  -0.000114
     4  C   -0.000000   0.000000  -0.000000   0.000015   0.439481  -0.059669
     5  C    0.000000  -0.000000   0.000000  -0.000000  -0.057482   0.444960
     6  C   -0.000000   0.000000   0.000000  -0.000000   0.012363  -0.063382
     7  C   -0.000001   0.000000   0.000000   0.000007  -0.002048   0.012374
     8  N   -0.000044  -0.000005  -0.000020   0.003298  -0.000081   0.000005
     9  N    0.005843  -0.000004   0.008094  -0.066620   0.000040   0.000000
    10  C    0.081799  -0.134108   0.102750   0.293627   0.000010   0.000000
    11  C    0.367049   0.075642  -0.159482   0.092889  -0.000002  -0.000000
    12  Cl  -0.041640   0.002279   0.000654   0.001768   0.000000   0.000000
    13  C    4.941688   0.310948   0.086747  -0.116726   0.000000  -0.000000
    14  C    0.310948   5.093290   0.294201   0.056695   0.000000   0.000000
    15  C    0.086747   0.294201   5.030779   0.317259   0.000000  -0.000000
    16  C   -0.116726   0.056695   0.317259   5.073697  -0.000003   0.000000
    17  H    0.000000   0.000000   0.000000  -0.000003   0.633561  -0.011069
    18  H   -0.000000   0.000000  -0.000000   0.000000  -0.011069   0.635176
    19  H    0.000000  -0.000000   0.000000  -0.000000  -0.000177  -0.010307
    20  H    0.000000  -0.000000  -0.000000  -0.000000   0.000028  -0.000180
    21  H    0.440918  -0.060000   0.012469  -0.001706  -0.000000  -0.000000
    22  H   -0.065094   0.450331  -0.067375   0.013166  -0.000000   0.000000
    23  H    0.012318  -0.065322   0.441285  -0.060413   0.000000  -0.000000
    24  H   -0.002529   0.013923  -0.064016   0.460646  -0.000000   0.000000
              19         20         21         22         23         24
     1  C    0.012799  -0.061879  -0.000001   0.000000  -0.000000  -0.000084
     2  C   -0.001361   0.021408  -0.000000  -0.000000   0.000000  -0.000050
     3  Cl   0.000007  -0.000047  -0.000001   0.000000  -0.000014   0.002043
     4  C    0.011892  -0.003063   0.000000  -0.000000  -0.000000   0.000003
     5  C   -0.063738   0.012470  -0.000000  -0.000000  -0.000000  -0.000000
     6  C    0.449352  -0.068807   0.000000  -0.000000   0.000000   0.000000
     7  C   -0.062135   0.435764   0.000000  -0.000000  -0.000000   0.000003
     8  N   -0.000111   0.004482   0.000001  -0.000000  -0.000000   0.000973
     9  N    0.000005   0.000314  -0.000073   0.000004  -0.000116  -0.010371
    10  C   -0.000000   0.000009   0.016830  -0.001912   0.014388  -0.076109
    11  C   -0.000000  -0.000006  -0.066834   0.014748  -0.001142   0.016207
    12  Cl   0.000000   0.000053   0.000426  -0.000100   0.000006  -0.000086
    13  C    0.000000   0.000000   0.440918  -0.065094   0.012318  -0.002529
    14  C   -0.000000  -0.000000  -0.060000   0.450331  -0.065322   0.013923
    15  C    0.000000  -0.000000   0.012469  -0.067375   0.441285  -0.064016
    16  C   -0.000000  -0.000000  -0.001706   0.013166  -0.060413   0.460646
    17  H   -0.000177   0.000028  -0.000000  -0.000000   0.000000  -0.000000
    18  H   -0.010307  -0.000180  -0.000000   0.000000  -0.000000   0.000000
    19  H    0.635917  -0.009731   0.000000  -0.000000   0.000000  -0.000000
    20  H   -0.009731   0.636305  -0.000000   0.000000   0.000000  -0.000001
    21  H    0.000000  -0.000000   0.650763  -0.011528  -0.000233   0.000011
    22  H   -0.000000   0.000000  -0.011528   0.660773  -0.011041  -0.000190
    23  H    0.000000   0.000000  -0.000233  -0.011041   0.658379  -0.012228
    24  H   -0.000000  -0.000001   0.000011  -0.000190  -0.012228   0.662890
 Mulliken charges:
               1
     1  C    0.029061
     2  C    0.045008
     3  Cl  -0.052327
     4  C   -0.019564
     5  C    0.005489
     6  C   -0.010844
     7  C   -0.001780
     8  N   -0.019146
     9  N   -0.061715
    10  C    0.126761
    11  C   -0.009619
    12  Cl  -0.102383
    13  C   -0.020807
    14  C   -0.038003
    15  C   -0.002428
    16  C   -0.078445
    17  H    0.029827
    18  H    0.040171
    19  H    0.037589
    20  H    0.032881
    21  H    0.018959
    22  H    0.018216
    23  H    0.024132
    24  H    0.008968
 Sum of Mulliken charges =  -0.00000
 Mulliken charges with hydrogens summed into heavy atoms:
               1
     1  C    0.029061
     2  C    0.045008
     3  Cl  -0.052327
     4  C    0.010264
     5  C    0.045660
     6  C    0.026744
     7  C    0.031100
     8  N   -0.019146
     9  N   -0.061715
    10  C    0.126761
    11  C   -0.009619
    12  Cl  -0.102383
    13  C   -0.001848
    14  C   -0.019787
    15  C    0.021704
    16  C   -0.069477
 APT charges:
               1
     1  C   -0.139461
     2  C    0.274756
     3  Cl  -0.206354
     4  C   -0.164849
     5  C    0.035348
     6  C   -0.082186
     7  C    0.020542
     8  N    0.165488
     9  N   -0.670611
    10  C    0.836527
    11  C    0.043675
    12  Cl  -0.263646
    13  C    0.119836
    14  C   -0.305824
    15  C    0.157755
    16  C   -0.234716
    17  H    0.061357
    18  H    0.046322
    19  H    0.044372
    20  H    0.085109
    21  H    0.057538
    22  H    0.034551
    23  H    0.030392
    24  H    0.054078
 Sum of APT charges =  -0.00000
 APT charges with hydrogens summed into heavy atoms:
               1
     1  C   -0.139461
     2  C    0.274756
     3  Cl  -0.206354
     4  C   -0.103492
     5  C    0.081671
     6  C   -0.037814
     7  C    0.105651
     8  N    0.165488
     9  N   -0.670611
    10  C    0.836527
    11  C    0.043675
    12  Cl  -0.263646
    13  C    0.177374
    14  C   -0.271273
    15  C    0.188147
    16  C   -0.180639
 Electronic spatial extent (au):  <R**2>=           5077.1092
 Charge=             -0.0000 electrons
 Dipole moment (field-independent basis, Debye):
    X=             -2.1638    Y=              2.2792    Z=              0.1181  Tot=              3.1450
 Quadrupole moment (field-independent basis, Debye-Ang):
   XX=            -87.8355   YY=            -98.5002   ZZ=           -105.1733
   XY=             -6.9555   XZ=             -3.2535   YZ=              0.5905
 Traceless Quadrupole moment (field-independent basis, Debye-Ang):
   XX=              9.3342   YY=             -1.3306   ZZ=             -8.0036
   XY=             -6.9555   XZ=             -3.2535   YZ=              0.5905
 Octapole moment (field-independent basis, Debye-Ang**2):
  XXX=            -83.7263  YYY=           -319.7768  ZZZ=             15.0129  XYY=            -52.8044
  XXY=            -92.8646  XXZ=             13.8486  XZZ=             -7.9316  YZZ=           -118.2474
  YYZ=             23.1366  XYZ=            -20.1218
 Hexadecapole moment (field-independent basis, Debye-Ang**3):
 XXXX=          -3320.8249 YYYY=          -2345.4233 ZZZZ=           -650.0364 XXXY=            523.3271
 XXXZ=             39.7361 YYYX=            528.0731 YYYZ=            190.4301 ZZZX=             72.5486
 ZZZY=             88.3287 XXYY=           -971.3525 XXZZ=           -722.8537 YYZZ=           -530.7429
 XXYZ=             43.6575 YYXZ=            -22.4751 ZZXY=            228.8242
 N-N= 1.226612616500D+03 E-N=-5.963353881349D+03  KE= 1.483120914321D+03
  Exact polarizability:     259.444     -33.972     135.627     -14.627      -4.310     114.668
 Approx polarizability:     267.565      -8.536     154.318     -13.158      -2.376     145.768
 No NMR shielding tensors so no spin-rotation constants.
 Leave Link  601 at Fri Mar  6 17:33:33 2026, MaxMem=  2415919104 cpu:               1.6 elap:               0.4
 (Enter /prod/precompiled/gaussian/16c2/g16/l701.exe)
 ... and contract with generalized density number  0.
 Compute integral second derivatives.
 R6Disp: Adding Grimme-D2 dispersion energy 2nd derivatives to the Hessian.
   1 Symmetry operations used in ECPInt.
 ECPInt:  NShTT=    7750 NPrTT=   30142 LenC2=    7118 LenP2D=   19312.
 LDataN:  DoStor=T MaxTD1= 6 Len=  172
 Leave Link  701 at Fri Mar  6 17:33:33 2026, MaxMem=  2415919104 cpu:               1.5 elap:               0.4
 (Enter /prod/precompiled/gaussian/16c2/g16/l702.exe)
 L702 exits ... SP integral derivatives will be done elsewhere.
 Leave Link  702 at Fri Mar  6 17:33:33 2026, MaxMem=  2415919104 cpu:               0.1 elap:               0.1
 (Enter /prod/precompiled/gaussian/16c2/g16/l703.exe)
 Integral derivatives from FoFJK, PRISM(SPDF).
 Compute integral second derivatives, UseDBF=F ICtDFT=           0.
 Calling FoFJK, ICntrl=    100127 FMM=F ISym2X=0 I1Cent= 0 IOpClX= 0 NMat=1 NMatS=1 NMatT=0.
 FoFJK:  IHMeth= 1 ICntrl=  100127 DoSepK=T KAlg= 0 I1Cent=           0 FoldK=F
 IRaf=         1 NMat=       1 IRICut=       1 DoRegI=T DoRafI=F ISym2E= 0 IDoP0=0 IntGTp=1.
 FoFCou: FMM=F IPFlag=           0 FMFlag=      100000 FMFlg1=         800
         NFxFlg=           0 DoJE=F BraDBF=F KetDBF=F FulRan=T
         wScrn=  0.000000 ICntrl=    100527 IOpCl=  0 I1Cent=           0 NGrid=           0
         NMat0=    1 NMatS0=      1 NMatT0=    0 NMatD0=    1 NMtDS0=    0 NMtDT0=    0
 Symmetry not used in FoFCou.
 Leave Link  703 at Fri Mar  6 17:34:17 2026, MaxMem=  2415919104 cpu:             515.6 elap:              43.5
 (Enter /prod/precompiled/gaussian/16c2/g16/l716.exe)
 Dipole        =-8.51323189D-01 8.96699189D-01 4.64693691D-02
 Polarizability= 2.59443930D+02-3.39723968D+01 1.35626520D+02
                -1.46270643D+01-4.31020662D+00 1.14668227D+02
 Full mass-weighted force constant matrix:
 Low frequencies --- -388.7681   -2.4893   -0.0026   -0.0022    0.0003    2.8023
 Low frequencies ---    5.7356   15.2439   28.4574
 ******    1 imaginary frequencies (negative Signs) ****** 
 Diagonal vibrational polarizability:
       38.4210416      52.5137840      44.9505513
 Harmonic frequencies (cm**-1), IR intensities (KM/Mole), Raman scattering
 activities (A**4/AMU), depolarization ratios for plane and unpolarized
 incident light, reduced masses (AMU), force constants (mDyne/A),
 and normal coordinates:
                           1         2         3         4         5
                           A         A         A         A         A
       Frequencies ---  -388.7681   15.1399   28.4313   74.9463  107.0025
    Reduced masses ---    13.3122   10.1771    7.8415    5.7313    6.7451
   Force constants ---     1.1854    0.0014    0.0037    0.0190    0.0455
    IR Intensities ---     8.8433    0.2164    2.0480    0.2371    0.0988
 Coord Atom Element:
   1     1     6         -0.07827  -0.01755   0.03933  -0.01840  -0.00713
   2     1     6         -0.03344  -0.01897  -0.01607  -0.01817   0.08766
   3     1     6         -0.14032  -0.03771  -0.05300  -0.07634  -0.16111
   1     2     6         -0.01749  -0.00087   0.02024   0.07082  -0.00684
   2     2     6         -0.05236  -0.07108  -0.03343  -0.07658   0.02983
   3     2     6         -0.06435   0.09675   0.01763  -0.00915  -0.00100
   1     3    17         -0.01410   0.04257  -0.01083   0.08333  -0.03604
   2     3    17          0.01525  -0.13401   0.04915  -0.13954   0.09539
   3     3    17         -0.00260   0.31441  -0.06596  -0.05231  -0.09459
   1     4     6          0.00515  -0.01597   0.02217   0.15031   0.00899
   2     4     6         -0.05233  -0.06625  -0.11781  -0.07393  -0.07713
   3     4     6         -0.02164   0.06700   0.15682   0.09967   0.19426
   1     5     6         -0.00114  -0.04863   0.04451   0.13824   0.00695
   2     5     6         -0.02187  -0.00448  -0.18763  -0.00436  -0.09891
   3     5     6         -0.00497  -0.09995   0.22465   0.12209   0.15127
   1     6     6         -0.01934  -0.06444   0.06273   0.04656  -0.01430
   2     6     6         -0.00714   0.05040  -0.16811   0.06973   0.00856
   3     6     6         -0.00702  -0.23268   0.14914   0.02754  -0.11880
   1     7     6         -0.04978  -0.04523   0.05851  -0.02896  -0.01736
   2     7     6         -0.01808   0.04366  -0.08199   0.05830   0.09711
   3     7     6         -0.05220  -0.19404   0.00876  -0.06565  -0.26213
   1     8     7          0.06186  -0.02346   0.06124  -0.05219   0.01191
   2     8     7         -0.08816  -0.03342   0.06013  -0.04434   0.10586
   3     8     7         -0.02589  -0.01859  -0.15704  -0.07652  -0.17261
   1     9     7          0.02902  -0.01986   0.05813  -0.06484  -0.04271
   2     9     7          0.69218  -0.03735   0.07227  -0.03110  -0.05971
   3     9     7          0.56154  -0.03659  -0.12789   0.00329   0.04017
   1    10     6          0.01722  -0.01304   0.03590  -0.06440  -0.04595
   2    10     6         -0.23719  -0.03512   0.01152  -0.05828  -0.01424
   3    10     6         -0.12760  -0.06874  -0.07240  -0.02966   0.10267
   1    11     6          0.02527   0.02324  -0.05987  -0.04574   0.01627
   2    11     6         -0.13895   0.08649   0.06760   0.03242  -0.03833
   3    11     6         -0.05816  -0.01876  -0.01294   0.00958   0.06901
   1    12    17          0.00990   0.05516  -0.14494  -0.04266   0.11343
   2    12    17         -0.00236   0.22918   0.23426  -0.04355  -0.05182
   3    12    17         -0.00815   0.08108  -0.03714  -0.02086   0.17697
   1    13     6          0.01366   0.03122  -0.08875  -0.03550   0.03708
   2    13     6         -0.02851   0.09163  -0.00457   0.21871  -0.08345
   3    13     6         -0.01103  -0.04956   0.06030   0.08290  -0.02979
   1    14     6          0.01234   0.00513  -0.02246  -0.04922  -0.00672
   2    14     6          0.00506  -0.00790  -0.10895   0.29213  -0.07709
   3    14     6         -0.01303  -0.12842   0.08559   0.10088  -0.07256
   1    15     6          0.00530  -0.02890   0.07448  -0.07301  -0.06619
   2    15     6         -0.03769  -0.11558  -0.14665   0.14400  -0.00652
   3    15     6         -0.02159  -0.17542   0.03653   0.03070  -0.01885
   1    16     6         -0.00601  -0.03890   0.10258  -0.08227  -0.08115
   2    16     6         -0.11688  -0.13427  -0.09708  -0.03870   0.01904
   3    16     6         -0.07532  -0.14743  -0.04526  -0.03957   0.07029
   1    17     1          0.03497  -0.00041   0.00469   0.22029   0.01467
   2    17     1         -0.07161  -0.10932  -0.12890  -0.12558  -0.13502
   3    17     1         -0.00133   0.17572   0.21232   0.16381   0.35981
   1    18     1          0.01949  -0.05946   0.04613   0.20060   0.01815
   2    18     1         -0.02210   0.00076  -0.25578  -0.00521  -0.18639
   3    18     1          0.02459  -0.12359   0.33687   0.21156   0.30819
   1    19     1         -0.01542  -0.08811   0.07917   0.03546  -0.02267
   2    19     1         -0.00655   0.09795  -0.22031   0.12945   0.01193
   3    19     1          0.03155  -0.36216   0.20198   0.03990  -0.19059
   1    20     1         -0.08837  -0.05027   0.07117  -0.09855  -0.02246
   2    20     1         -0.01820   0.08241  -0.06462   0.10338   0.16211
   3    20     1         -0.01554  -0.28823  -0.04815  -0.11304  -0.42333
   1    21     1          0.02454   0.05942  -0.16255  -0.01591   0.08478
   2    21     1          0.03117   0.18198   0.03426   0.30943  -0.12361
   3    21     1          0.01694  -0.01010   0.09924   0.12473  -0.06272
   1    22     1          0.01551   0.01227  -0.04428  -0.04071   0.00508
   2    22     1          0.07653   0.00111  -0.15766   0.44836  -0.11700
   3    22     1          0.01737  -0.15179   0.14477   0.16328  -0.14557
   1    23     1          0.00428  -0.04875   0.12994  -0.08452  -0.10386
   2    23     1          0.01622  -0.19135  -0.22651   0.17685   0.01530
   3    23     1          0.00384  -0.23540   0.05917   0.03414  -0.05019
   1    24     1         -0.00354  -0.06661   0.17616  -0.10210  -0.13144
   2    24     1         -0.04134  -0.22139  -0.13756  -0.12826   0.04723
   3    24     1         -0.03599  -0.18478  -0.08804  -0.08024   0.09953
                           6         7         8         9        10
                           A         A         A         A         A
       Frequencies ---   136.9108  176.5602  226.0906  239.6596  280.3478
    Reduced masses ---     5.3449    6.4436    9.0254    6.7853    6.3656
   Force constants ---     0.0590    0.1183    0.2718    0.2296    0.2948
    IR Intensities ---     0.5756    3.4585    1.0735    2.1639    5.6157
 Coord Atom Element:
   1     1     6         -0.03414  -0.01630   0.11060   0.03292   0.08275
   2     1     6         -0.06131  -0.05967  -0.06240  -0.00608  -0.04102
   3     1     6         -0.00617   0.14758   0.05847  -0.10210   0.20810
   1     2     6          0.01872  -0.00179   0.11775   0.06992   0.07976
   2     2     6         -0.08326  -0.07178  -0.03787  -0.00776  -0.06431
   3     2     6         -0.01141   0.17382   0.04463  -0.11377   0.24479
   1     3    17          0.03242  -0.07226   0.06081   0.09073   0.04910
   2     3    17         -0.15229   0.01903   0.26373   0.06737  -0.03568
   3     3    17         -0.04426  -0.13193   0.03443   0.04137  -0.07725
   1     4     6          0.06554   0.03315   0.05913   0.05046   0.01118
   2     4     6         -0.05185  -0.08443  -0.07906  -0.05661  -0.05045
   3     4     6         -0.00083   0.24427   0.02547  -0.07725   0.12203
   1     5     6          0.05443  -0.01712   0.04568   0.07110  -0.04479
   2     5     6          0.00080   0.03352  -0.06035  -0.11568   0.00183
   3     5     6         -0.00124   0.03365  -0.06690   0.01246  -0.20634
   1     6     6          0.00033  -0.08543   0.05449   0.05730   0.01230
   2     6     6          0.02652   0.15404  -0.04456  -0.10201  -0.05497
   3     6     6         -0.00992  -0.21922  -0.10319   0.00314  -0.12423
   1     7     6         -0.04106  -0.06728   0.10617   0.04923   0.10758
   2     7     6         -0.01415   0.07462  -0.04926  -0.04338  -0.13181
   3     7     6         -0.00860  -0.07504  -0.00144  -0.08163   0.15332
   1     8     7         -0.01773  -0.02088  -0.02463  -0.01119   0.09502
   2     8     7         -0.05927  -0.13470  -0.17797  -0.13281   0.22933
   3     8     7          0.02093   0.27502   0.12817   0.13306  -0.17377
   1     9     7         -0.01022   0.04207  -0.02823  -0.01381   0.03049
   2     9     7          0.04090   0.00347  -0.18831  -0.01003   0.10003
   3     9     7          0.03474   0.03041   0.06446   0.14965   0.03873
   1    10     6         -0.00511   0.06418  -0.03118  -0.01472  -0.01550
   2    10     6          0.08218   0.06138  -0.23283   0.17911   0.03869
   3    10     6          0.02296  -0.00530  -0.05732   0.15750   0.07225
   1    11     6         -0.01186   0.04829  -0.02060   0.00055  -0.03566
   2    11     6         -0.03635   0.06268  -0.26033   0.21944   0.05087
   3    11     6         -0.03696   0.00220  -0.08341   0.16228   0.08047
   1    12    17         -0.02220  -0.01613  -0.09669  -0.10676  -0.06859
   2    12    17          0.13282   0.00352   0.09808  -0.04938  -0.03512
   3    12    17          0.02840  -0.10599   0.00539  -0.06046   0.04099
   1    13     6         -0.01877   0.03411  -0.00488   0.01344  -0.01626
   2    13     6         -0.18716   0.04177  -0.13148   0.14637   0.02888
   3    13     6         -0.11174   0.04002  -0.08503   0.04898  -0.01428
   1    14     6         -0.01690   0.05891  -0.05487  -0.05179  -0.06907
   2    14     6         -0.10769  -0.04076   0.13923  -0.09592   0.02820
   3    14     6         -0.07231   0.02634  -0.02462  -0.15674  -0.08594
   1    15     6         -0.00817   0.08309  -0.10038  -0.09950  -0.08584
   2    15     6          0.18964  -0.08699   0.20003  -0.10325   0.02269
   3    15     6          0.08242  -0.00467   0.01986  -0.14907  -0.08674
   1    16     6         -0.00503   0.08956  -0.11337  -0.10442  -0.08889
   2    16     6          0.29473  -0.00547  -0.04521   0.15709   0.00402
   3    16     6          0.12885  -0.00767  -0.04554   0.05691  -0.02184
   1    17     1          0.10614   0.07699   0.02524   0.02575  -0.05866
   2    17     1         -0.07042  -0.13926  -0.07010  -0.05388  -0.01421
   3    17     1          0.00210   0.35173   0.04216  -0.05398   0.10423
   1    18     1          0.08583  -0.00729   0.02904   0.09194  -0.14471
   2    18     1          0.02417   0.05228  -0.04266  -0.15528   0.09897
   3    18     1          0.00539   0.01760  -0.11962   0.10538  -0.50431
   1    19     1         -0.00985  -0.13916   0.04167   0.07342  -0.01987
   2    19     1          0.07556   0.28318  -0.03012  -0.13654  -0.00343
   3    19     1         -0.00990  -0.47140  -0.20029   0.08235  -0.32669
   1    20     1         -0.08056  -0.09647   0.15145   0.09157   0.17551
   2    20     1         -0.00189   0.11913  -0.06122  -0.06431  -0.14775
   3    20     1         -0.00147  -0.15989  -0.01307  -0.06789   0.12985
   1    21     1         -0.02202   0.00076   0.06602   0.09006   0.06397
   2    21     1         -0.33225   0.05667  -0.13126   0.15478   0.01258
   3    21     1         -0.18585   0.05631  -0.10285   0.03392  -0.04314
   1    22     1         -0.01988   0.05151  -0.03575  -0.04149  -0.05963
   2    22     1         -0.22591  -0.07788   0.31916  -0.27543   0.00661
   3    22     1         -0.13383   0.03349   0.00899  -0.31097  -0.13724
   1    23     1         -0.00307   0.09970  -0.12118  -0.13171  -0.10367
   2    23     1          0.33641  -0.16695   0.43667  -0.29712  -0.01928
   3    23     1          0.16111  -0.02620   0.11440  -0.28156  -0.12684
   1    24     1          0.00126   0.12666  -0.18357  -0.18299  -0.17688
   2    24     1          0.50465  -0.02554   0.02247   0.14826  -0.05995
   3    24     1          0.23647  -0.02905   0.01109   0.07639  -0.02875
                          11        12        13        14        15
                           A         A         A         A         A
       Frequencies ---   289.1674  338.8417  399.8088  429.6184  463.8504
    Reduced masses ---     9.0689    6.7841   11.2405    3.3773    4.1439
   Force constants ---     0.4468    0.4589    1.0586    0.3673    0.5253
    IR Intensities ---     4.1569   14.7479    1.7811    3.5856    1.5382
 Coord Atom Element:
   1     1     6         -0.02619   0.07003  -0.07174  -0.03359  -0.07053
   2     1     6         -0.13776   0.18419   0.07201  -0.03548   0.07304
   3     1     6          0.00914   0.05783   0.01896   0.03783  -0.15939
   1     2     6          0.08184   0.01490   0.07656   0.01559  -0.04329
   2     2     6         -0.15424   0.22247   0.02368  -0.03544   0.08533
   3     2     6         -0.00731   0.00495   0.04891  -0.01351  -0.19177
   1     3    17          0.03579   0.13311   0.21018   0.03545   0.09590
   2     3    17          0.13084  -0.10221   0.04613   0.01678   0.00783
   3     3    17          0.03477  -0.06085  -0.03536   0.00089   0.00075
   1     4     6          0.11833  -0.13910  -0.05139   0.00572  -0.02999
   2     4     6         -0.13287   0.10089  -0.07799  -0.02350  -0.09812
   3     4     6         -0.01346   0.01357   0.05483  -0.05994   0.16992
   1     5     6          0.09180  -0.11469  -0.10294   0.01661  -0.10256
   2     5     6          0.00337  -0.16266  -0.07848  -0.03355   0.03790
   3     5     6         -0.07830   0.05752  -0.09720   0.02317  -0.04861
   1     6     6          0.00277  -0.02778  -0.14096  -0.03842  -0.12789
   2     6     6          0.02848  -0.15639  -0.08929  -0.00530   0.05035
   3     6     6         -0.03117  -0.06095  -0.00643   0.00761  -0.04583
   1     7     6         -0.03840   0.10148  -0.05206  -0.05958  -0.04062
   2     7     6         -0.06740   0.02628  -0.04430   0.00404  -0.04549
   3     7     6          0.06641  -0.11315   0.07830  -0.03585   0.19834
   1     8     7         -0.10062  -0.02311  -0.18236  -0.01527  -0.02553
   2     8     7         -0.16557   0.03362   0.07243   0.01743  -0.04648
   3     8     7          0.02312   0.30952  -0.06689   0.02256  -0.01821
   1     9     7         -0.00749   0.03498  -0.22744  -0.00699  -0.00573
   2     9     7          0.22819   0.10174  -0.06840   0.03243  -0.00677
   3     9     7         -0.27195  -0.06392   0.13545   0.01533  -0.03602
   1    10     6         -0.06262  -0.00333  -0.16091  -0.00591   0.01522
   2    10     6          0.12560   0.02036  -0.01131   0.13320   0.00583
   3    10     6         -0.16792  -0.07877  -0.03624   0.07757   0.01877
   1    11     6         -0.19588  -0.09368   0.03458   0.01402   0.02602
   2    11     6          0.11812  -0.05615   0.05414   0.20055   0.00194
   3    11     6         -0.10077  -0.07841  -0.10862   0.10082   0.03145
   1    12    17          0.10197  -0.01052   0.25266   0.01128  -0.06513
   2    12    17         -0.10168  -0.02665   0.08647  -0.00419  -0.01537
   3    12    17          0.17666   0.08038  -0.19998  -0.02150   0.03644
   1    13     6         -0.22970  -0.10198  -0.06384   0.00024   0.07171
   2    13     6          0.07261  -0.00871   0.00869  -0.19640  -0.00925
   3    13     6         -0.03925  -0.05843   0.13895  -0.09036  -0.05084
   1    14     6         -0.11887  -0.06752  -0.04209   0.00005   0.09731
   2    14     6         -0.05791   0.05489  -0.12518   0.05556   0.02478
   3    14     6          0.05533   0.01461   0.16799   0.03703  -0.03029
   1    15     6          0.03062   0.00210  -0.12896  -0.00565   0.08368
   2    15     6         -0.03835   0.02180  -0.12358   0.10900   0.02545
   3    15     6          0.02691  -0.02130   0.19756   0.06402  -0.02427
   1    16     6          0.07089   0.01760  -0.10651  -0.01076   0.05605
   2    16     6          0.08973  -0.00426   0.02734  -0.19675  -0.03499
   3    16     6         -0.05093  -0.07664   0.09687  -0.08758   0.01724
   1    17     1          0.17718  -0.32796  -0.17143  -0.00474   0.01892
   2    17     1         -0.15824   0.16311  -0.04977  -0.00273  -0.23840
   3    17     1         -0.01582   0.07692   0.13005  -0.10923   0.52977
   1    18     1          0.14404  -0.19135  -0.10665   0.05440  -0.06416
   2    18     1          0.09101  -0.30028  -0.01443  -0.02613   0.06332
   3    18     1         -0.14713   0.17404  -0.20376   0.06450  -0.03326
   1    19     1         -0.01947  -0.00392  -0.14319  -0.04395  -0.12720
   2    19     1          0.12250  -0.27940  -0.09325   0.02616   0.03621
   3    19     1         -0.05966  -0.08341  -0.03334   0.01899  -0.05624
   1    20     1         -0.08265   0.30797   0.06663  -0.07323   0.01150
   2    20     1         -0.07403  -0.01210  -0.09008   0.03180  -0.20122
   3    20     1          0.12687  -0.21177   0.07969  -0.09436   0.54154
   1    21     1         -0.35287  -0.11879  -0.27456  -0.01174   0.10869
   2    21     1          0.06930  -0.00863   0.07122  -0.55390  -0.05270
   3    21     1         -0.01030  -0.05429   0.22238  -0.27216  -0.08119
   1    22     1         -0.16002  -0.08164  -0.03296   0.00198   0.09393
   2    22     1         -0.16104   0.10310  -0.13743   0.04025   0.02071
   3    22     1          0.15526   0.09990   0.11707   0.02078  -0.01476
   1    23     1          0.10989   0.03812  -0.11814  -0.00600   0.04933
   2    23     1         -0.10949   0.03520  -0.14129   0.16071   0.05164
   3    23     1          0.08065   0.02568   0.20149   0.08955  -0.05091
   1    24     1          0.18557   0.03079   0.06254  -0.01839   0.04819
   2    24     1          0.13129  -0.00052   0.13579  -0.51942  -0.06862
   3    24     1         -0.06365  -0.07866   0.10460  -0.25348   0.00094
                          16        17        18        19        20
                           A         A         A         A         A
       Frequencies ---   466.0843  516.8428  532.8910  562.3146  578.8068
    Reduced masses ---     5.6682    4.7479    4.2818    7.0712    7.7377
   Force constants ---     0.7255    0.7472    0.7164    1.3174    1.5273
    IR Intensities ---     0.2656    5.0877    8.5304    9.4571    1.1845
 Coord Atom Element:
   1     1     6         -0.09206   0.04327  -0.02456   0.04832  -0.05792
   2     1     6         -0.09511   0.00739   0.10405  -0.06081   0.03233
   3     1     6          0.15677  -0.01427  -0.19460  -0.06632   0.09578
   1     2     6          0.04808  -0.00174   0.05170  -0.02925   0.01378
   2     2     6         -0.11121   0.01222  -0.06189  -0.05392   0.03842
   3     2     6          0.10247   0.08839   0.22603   0.03552  -0.04255
   1     3    17          0.15547   0.02495  -0.01612   0.06659  -0.03781
   2     3    17          0.05494  -0.00007   0.00019   0.00694   0.00448
   3     3    17         -0.02507  -0.01547  -0.02153  -0.01653   0.01626
   1     4     6         -0.07861  -0.07316   0.02281  -0.12319   0.09671
   2     4     6         -0.04575   0.03199  -0.01024  -0.05470   0.04863
   3     4     6         -0.16525   0.02133   0.09655   0.00730  -0.03206
   1     5     6         -0.07196  -0.09276  -0.03618  -0.17363   0.15062
   2     5     6         -0.04781   0.04958   0.07706   0.11056  -0.10660
   3     5     6          0.08033   0.01190  -0.20428   0.05458  -0.00954
[...]
 0322,0.00032596,0.00105333,0.00062664,0.00040430,-0.00142940,-0.003130
 41,-0.00378782,-0.06511348,-0.00913214,0.02520280,-0.18708163,-0.03061
 949,0.05565319,0.04915862,-0.02305020,0.04264418,0.00346291,0.00291706
 ,-0.00607710,-0.06274777,-0.00721324,0.01868753,0.00178894,0.04050555,
 -0.07853477,-0.35745183,0.02158603,-0.03104215,0.71089437,-0.00002990,
 -0.00165410,0.00137253,-0.00087683,-0.00072858,-0.00001597,0.00131676,
 0.00077859,0.00006223,0.00028985,0.00030032,-0.00017845,-0.00002095,0.
 00003380,0.00000183,-0.00004551,-0.00000344,-0.00014465,-0.00011604,0.
 00050215,0.00023463,-0.00373449,0.00209738,-0.00123809,0.00320385,0.00
 853950,-0.00394807,-0.05309394,-0.09546399,0.06692875,-0.00526605,0.00
 102396,0.01495165,0.00118589,0.00251353,0.00225871,-0.00216184,-0.0048
 3209,0.00133954,0.01493263,0.00721784,0.00577722,0.05115588,-0.0767989
 7,0.03497241,-0.03080114,0.24453149,0.00015927,-0.00105842,-0.00113241
 ,-0.00011171,-0.00004676,-0.00009566,0.00019877,0.00064300,-0.00034326
 ,-0.00024337,-0.00012677,0.00020331,0.00006134,0.00017981,0.00006965,0
 .00019535,-0.00005760,-0.00005181,-0.00022961,-0.00004350,0.00005401,0
 .00198813,0.00360847,-0.00005862,0.00622806,-0.00667702,0.01731291,0.0
 9702670,0.06512933,-0.19323057,0.00843305,0.01451609,-0.02347245,-0.00
 062121,0.00279639,-0.00158036,0.00632651,0.00092017,-0.00562724,-0.029
 89138,0.00461569,0.00193987,-0.09007913,0.03791894,-0.12734317,0.04505
 438,-0.24774272,0.59742181,-0.00197356,0.00165908,0.00230487,0.0080756
 4,0.01799194,0.00675794,0.00065594,0.00121741,-0.00034335,-0.09650989,
 -0.09935937,-0.02971496,-0.00467203,-0.02629959,-0.00934102,-0.0049028
 4,-0.00075665,0.00213819,-0.00088489,0.00074146,0.00031862,0.00051884,
 0.00110456,0.00038707,0.00006048,-0.00040855,-0.00016310,0.00018959,-0
 .00002241,0.00006465,-0.00004593,0.00005227,-0.00005173,0.00000141,-0.
 00000107,-0.00000668,0.00001968,-0.00000744,0.00000505,-0.00003964,0.0
 0000297,-0.00001782,0.00002279,-0.00001458,0.00001512,-0.00009349,-0.0
 0000554,0.00002677,0.09920864,0.00322952,-0.00072270,-0.00317446,-0.01
 036330,-0.01311646,-0.00512101,-0.00049956,0.00043109,0.00158427,-0.09
 760689,-0.28139154,-0.08320143,0.00150028,0.00039468,-0.00198870,-0.00
 104800,0.00222110,-0.00176058,0.00049796,0.00056557,0.00057806,-0.0013
 1502,-0.00038204,-0.00034355,0.00079571,0.00025945,0.00032240,-0.00059
 569,0.00002194,-0.00012754,0.00015809,-0.00005981,0.00008435,-0.000034
 51,-0.00000577,0.00003440,-0.00005904,0.00000023,0.00000173,0.00007641
 ,-0.00000849,0.00001945,-0.00004518,0.00002662,-0.00001685,0.00016451,
 0.00004601,-0.00003523,0.10469883,0.29216964,0.00266090,-0.00354511,0.
 00402457,-0.00553195,-0.01016859,0.00044132,-0.00093837,0.00114958,-0.
 00228657,-0.02833924,-0.08309152,-0.06725099,0.00208609,0.00366597,0.0
 0531381,0.00193119,-0.00165594,0.00579214,0.00066368,0.00030653,-0.000
 90924,-0.00062604,-0.00028123,-0.00029075,0.00007186,0.00014603,0.0002
 9706,-0.00019357,0.00000352,-0.00006271,0.00003220,-0.00003995,0.00007
 819,0.00002874,0.00000664,-0.00002401,-0.00004085,-0.00001880,0.000004
 24,0.00002124,0.00000835,-0.00002446,0.00002271,0.00001868,0.00000853,
 0.00002875,0.00003255,0.00001292,0.02903452,0.09138634,0.05856805,-0.0
 0058100,-0.00084732,-0.00044529,-0.00361948,-0.00208790,0.00144420,-0.
 00112646,0.00041196,0.00041571,-0.01156321,0.02175972,0.01280243,-0.16
 224580,0.11622663,0.07622557,0.01101999,-0.00981838,-0.00553166,0.0002
 9676,-0.00305627,-0.00005697,0.00001960,0.00008216,-0.00010545,-0.0000
 5845,0.00004559,0.00000827,0.00005608,-0.00005119,-0.00000198,-0.00000
 981,-0.00000565,0.00003358,0.00001175,0.00000912,-0.00001833,-0.000011
 48,0.00000194,0.00000224,-0.00000241,0.00001237,-0.00002527,0.00004291
 ,-0.00000625,0.00001812,-0.00004436,0.00003158,0.00001275,0.00069184,0
 .00031142,-0.00095686,0.16635092,-0.00119500,-0.00020993,0.00030065,-0
 .00201782,0.00186708,-0.00192858,-0.00037099,0.00007562,0.00015500,-0.
 00682474,0.00801690,0.00285096,0.11646255,-0.19125864,-0.09012259,0.01
 834402,-0.01067037,-0.01055077,-0.00319033,-0.00283940,-0.00374488,0.0
 0020443,-0.00016429,0.00024419,0.00023602,-0.00000243,0.00008388,-0.00
 013952,0.00003460,-0.00006038,0.00003674,-0.00003090,0.00000243,-0.000
 00910,-0.00000527,0.00001549,-0.00001303,0.00000365,-0.00000160,0.0000
 2169,-0.00000721,0.00001234,-0.00002212,0.00000230,-0.00001379,0.00005
 706,0.00001000,0.00000325,0.00051634,-0.00022634,0.00169930,-0.1232473
 2,0.19579359,-0.00018052,0.00047995,-0.00025802,0.00114150,-0.00187142
 ,0.00620050,0.00010535,0.00006569,-0.00011303,0.00063796,-0.00299843,0
 .00322267,0.07629062,-0.08992487,-0.09591795,0.00680322,-0.00513527,0.
 00127659,-0.00016257,-0.00391803,0.00531172,-0.00026742,0.00045103,-0.
 00069047,0.00000289,-0.00001764,-0.00004077,-0.00015395,-0.00004780,0.
 00007519,0.00003774,0.00001339,0.00004612,0.00001212,0.00000159,-0.000
 01084,-0.00002635,-0.00000739,0.00000736,0.00001197,0.00000751,-0.0000
 1347,0.00000083,0.00000454,0.00000965,-0.00000992,0.00001049,-0.000032
 11,-0.00085298,0.00171331,-0.00342341,-0.08288743,0.09962155,0.0877769
 8,0.00042447,0.00231104,0.00273087,0.00063811,0.00030229,-0.00010467,-
 0.00003834,0.00003656,-0.00011784,0.00123268,-0.00229712,0.00010204,-0
 .00535752,0.00167803,0.00259805,-0.33456077,-0.05878336,0.03281089,-0.
 01204440,-0.00667995,0.00006003,-0.00026500,-0.00061934,-0.00026071,-0
 .00077726,0.00023984,-0.00000755,0.00051890,0.00000696,0.00011367,-0.0
 0014713,0.00003619,-0.00001683,0.00003428,0.00001860,-0.00003770,0.000
 05242,-0.00000648,-0.00001608,-0.00005844,0.00001203,-0.00001760,0.000
 05242,-0.00000518,0.00002447,-0.00013270,-0.00003784,0.00001611,-0.000
 33342,0.00008404,0.00012895,0.00039034,0.00031088,-0.00076277,0.349803
 93,0.00136899,-0.00129945,-0.00444288,0.00052166,-0.00116895,-0.000423
 20,-0.00001055,0.00003417,0.00037063,-0.00188159,-0.00316758,-0.004147
 56,-0.02664052,0.00020811,0.00370464,-0.05886319,-0.06774332,-0.001269
 19,0.02176092,0.00832604,-0.00221307,0.00070862,0.00057931,-0.00005513
 ,0.00066824,-0.00024109,0.00004081,-0.00032337,-0.00007714,-0.00003856
 ,0.00009872,-0.00000825,0.00002187,-0.00002148,-0.00001085,0.00002322,
 -0.00002985,0.00000236,0.00001381,0.00003227,-0.00000763,0.00001084,-0
 .00002883,0.00000685,-0.00001145,0.00007673,0.00002775,-0.00001957,-0.
 00112290,-0.00008104,0.00019277,0.00065310,0.00011625,0.00174067,0.063
 10586,0.06468496,0.00240571,-0.00392966,0.00480892,-0.00017228,-0.0006
 3485,-0.00080364,-0.00015112,0.00029630,-0.00059647,0.00025766,-0.0041
 5221,0.00504058,-0.01012195,-0.00178718,0.00504610,0.03266945,-0.00163
 815,-0.04626294,0.01269946,0.00375182,0.00303200,0.00048084,0.00009542
 ,0.00026274,0.00044865,-0.00018965,-0.00010643,-0.00019830,0.00000915,
 -0.00008167,0.00003814,-0.00006449,0.00003766,-0.00000640,-0.00000350,
 0.00000034,-0.00003466,0.00002442,-0.00001097,0.00004321,0.00000357,-0
 .00000687,-0.00000966,-0.00001620,0.00000872,0.00004038,0.00004712,-0.
 00002054,-0.00047068,-0.00008660,0.00017063,-0.00059780,0.00182614,-0.
 00319048,-0.03636048,0.00452949,0.03599809,-0.00580319,-0.02641324,-0.
 00944244,-0.00414793,-0.00008689,0.00176958,-0.00101011,-0.00123304,-0
 .00020628,-0.00093631,0.00051608,0.00023726,-0.00173563,0.00240478,0.0
 0276263,0.01140764,0.01739375,0.00671424,-0.09178712,-0.08796088,-0.03
 137914,0.00112252,-0.00081673,-0.00355369,0.00139225,0.00023416,0.0009
 0529,-0.00106126,0.00000779,0.00010401,0.00031430,-0.00014637,0.000211
 94,0.00001646,0.00001036,0.00003162,-0.00014441,-0.00005643,0.00000539
 ,0.00013584,-0.00000649,0.00000997,-0.00007714,0.00005675,-0.00002831,
 0.00023808,0.00011405,-0.00007992,0.00001849,0.00003584,-0.00009449,0.
 00038159,0.00083785,0.00025382,0.00057965,-0.00007877,-0.00096428,0.09
 106566,-0.00112489,-0.00127779,-0.00297891,-0.00169123,0.00130107,-0.0
 0195461,0.00031490,-0.00007744,-0.00006674,0.00067045,0.00046613,0.000
 58985,0.00238055,0.00012586,-0.00378461,-0.00929112,-0.00969189,-0.004
 40861,-0.08972040,-0.27715922,-0.09333796,0.00372381,-0.00154739,0.001
 50592,-0.00078468,-0.00000816,-0.00038227,0.00064229,0.00007779,0.0000
 5244,-0.00015184,0.00005755,-0.00008923,0.00002725,-0.00000542,-0.0000
 0469,0.00006232,-0.00001284,0.00001345,-0.00007523,0.00000689,-0.00000
 686,0.00005017,-0.00000679,-0.00001460,-0.00010588,-0.00004785,0.00006
 849,-0.00000519,-0.00011557,0.00019206,-0.00041360,-0.00050634,-0.0001
 8432,0.00028639,-0.00017517,0.00191938,0.09521367,0.28859154,0.0017367
 8,0.00254381,0.00618607,0.00125121,-0.00160137,0.00469349,0.00030282,0
 .00015500,0.00018582,0.00056752,0.00059918,-0.00075110,0.00288469,-0.0
 0384310,0.00459919,-0.00597692,-0.00999739,0.00171211,-0.03077488,-0.0
 9370164,-0.07764457,-0.00001825,0.00120381,-0.00359218,-0.00180897,0.0
 0022772,-0.00040460,0.00057121,-0.00023951,0.00041743,-0.00012089,-0.0
 0000586,-0.00002372,0.00008875,0.00004636,-0.00009618,0.00003954,0.000
 03774,0.00000956,-0.00004777,0.00002697,-0.00004909,0.00008935,-0.0000
 6545,0.00002669,-0.00025049,-0.00000819,0.00004622,-0.00011538,0.00015
 610,-0.00042652,-0.00031336,-0.00039592,-0.00023124,-0.00087538,0.0019
 7460,-0.00332185,0.03276888,0.10286784,0.06867323,-0.00000433,0.000226
 63,-0.00012953,-0.00008674,-0.00003099,-0.00003720,0.00003027,0.000020
 00,-0.00000393,-0.00001270,-0.00000043,0.00002821,-0.00001724,0.000011
 11,0.00000865,-0.00000162,0.00003413,0.00000929,0.00005266,0.00001114,
 0.00004667,0.00008876,-0.00052951,0.00017624,-0.00016192,0.00093470,-0
 .00115833,-0.00518020,0.00092913,-0.00069862,-0.00292658,0.01261112,-0
 .02511745,0.00096151,-0.00000701,-0.00044279,-0.07172712,0.02960916,-0
 .05639789,0.01048760,-0.00999285,0.01912830,-0.00296818,-0.00140379,0.
 00310987,-0.00095859,-0.00012539,0.00037599,-0.00000145,0.00000639,0.0
 0000096,-0.00000131,0.00000166,0.00000057,-0.00000674,0.00000499,-0.00
 000284,0.00001056,-0.00000096,-0.00000620,0.07132335,0.00004057,-0.000
 05389,-0.00002814,0.00002868,0.00000867,-0.00000068,-0.00002242,0.0000
 3314,-0.00000709,0.00000886,-0.00000305,0.00001105,0.00000652,-0.00000
 157,-0.00000312,-0.00000055,-0.00001060,-0.00000489,-0.00002470,-0.000
 00323,-0.00001000,-0.00019714,0.00003518,0.00000993,0.00051470,0.00027
 406,0.00012678,0.00032202,0.00465616,0.00194362,-0.00114469,0.00180605
 ,0.00414009,-0.00041503,-0.00230912,-0.00155681,0.03101341,-0.10034468
 ,0.12029373,0.00335462,0.00096053,0.00707458,-0.00154303,0.00540380,0.
 00296579,-0.00007761,-0.00065166,-0.00069338,0.00000284,-0.00000516,0.
 00000324,0.00000095,0.00000053,-0.00000212,0.00000074,-0.00000123,0.00
 000139,-0.00000293,0.00000167,0.00000263,-0.03195542,0.09403981,-0.000
 03284,0.00008680,0.00006991,-0.00005337,-0.00003843,-0.00002755,0.0000
 2049,0.00001698,0.00000104,-0.00000835,0.00000273,0.00001169,-0.000003
 55,0.00000837,0.00000498,-0.00000191,0.00000899,-0.00000090,0.00002430
 ,0.00002895,0.00001507,0.00004092,-0.00017236,-0.00009033,-0.00017097,
 0.00032356,-0.00020042,-0.00058737,0.00181983,0.00238946,0.00241494,0.
 00348617,-0.00334045,0.00046908,-0.00173474,0.00023242,-0.05832295,0.1
 2064875,-0.27136817,-0.00771099,0.00725098,-0.00924180,0.00337184,0.00
 316685,0.00036147,0.00039831,-0.00077906,0.00044459,-0.00000017,0.0000
 0293,0.00000122,-0.00000132,0.00000202,-0.00000046,-0.00000468,0.00000
 193,0.00000239,0.00000784,-0.00000360,-0.00000216,0.06060716,-0.132267
 16,0.28176776,0.00000473,0.00003531,0.00000536,-0.00002050,-0.00001837
 ,-0.00001139,0.00000029,0.00000489,-0.00000069,-0.00001655,-0.00000301
 ,0.00000379,-0.00000228,0.00000650,0.00000245,0.00000468,0.00001138,-0
 .00000116,0.00002240,0.00001274,0.00000892,0.00013224,-0.00007303,0.00
 000890,0.00002852,0.00001369,-0.00004602,0.00042939,-0.00021093,0.0004
 1966,-0.00021652,-0.00135151,0.00285842,-0.00096260,-0.00002118,0.0001
 4900,-0.01525180,0.00468337,-0.00811963,-0.32801986,0.04153445,-0.0658
 4817,-0.00238582,-0.00091523,0.00192202,0.00158018,0.00070445,-0.00107
 521,0.00000056,0.00000060,0.00000110,-0.00000190,0.00000125,0.00000173
 ,-0.00000288,0.00000015,0.00000147,0.00000819,-0.00000178,0.00000313,0
 .00075307,-0.00007803,-0.00009437,0.34362392,0.00001034,-0.00009080,0.
 00003740,0.00003974,0.00000692,0.00000358,-0.00002023,-0.00000241,-0.0
 0000584,-0.00000194,0.00000009,-0.00000390,0.00000467,-0.00000133,-0.0
 0000167,-0.00000004,-0.00000694,-0.00000501,-0.00001330,-0.00000487,-0
 .00000478,-0.00007996,0.00007637,-0.00007775,0.00015093,-0.00018609,-0
 .00041912,-0.00032531,-0.00081065,0.00030675,-0.00044873,0.00440801,0.
 00340621,-0.00048373,0.00048556,0.00023463,-0.01044658,0.00346350,-0.0
 0254446,0.04165703,-0.04332004,0.02078917,0.01385242,0.00061172,0.0016
 1894,-0.00012899,0.00360344,0.00446137,0.00000196,-0.00000315,0.000001
 04,0.00000086,-0.00000040,0.00000005,0.00000098,-0.00000066,-0.0000000
 9,-0.00000214,0.00000082,0.00000412,0.00017109,-0.00326414,-0.00201813
 ,-0.04430170,0.03753843,-0.00000245,0.00000431,0.00000163,0.00004794,0
 .00001967,-0.00000824,-0.00003240,-0.00002388,-0.00000128,-0.00002624,
 -0.00000536,0.00000861,0.00000233,0.00000838,0.00000271,-0.00000237,-0
 .00000229,0.00000047,0.00000157,0.00000169,0.00000822,0.00002316,-0.00
 000312,-0.00007313,-0.00003738,-0.00020906,0.00010277,0.00050846,0.000
 02768,-0.00088480,0.00226759,0.00333083,-0.00047941,0.00104692,0.00029
 433,-0.00010715,0.02012041,-0.00348451,0.00772920,-0.06594317,0.021079
 31,-0.06848030,-0.02625774,0.00211774,-0.00102465,-0.00028822,0.004644
 26,-0.00292627,0.00000175,-0.00000155,-0.00000037,-0.00000190,0.000000
 61,-0.00000016,-0.00000203,0.00000059,-0.00000052,-0.00000059,0.000000
 22,-0.00000314,-0.00043655,-0.00206313,-0.00028967,0.06992704,-0.02401
 815,0.06661756,-0.00000498,0.00021352,-0.00002264,-0.00021333,-0.00011
 067,-0.00003925,0.00008676,0.00004614,-0.00001311,-0.00001269,0.000007
 87,0.00001889,-0.00001582,0.00002277,0.00001201,0.00001814,0.00003567,
 0.00000915,0.00006773,0.00004158,0.00004004,0.00020006,-0.00012862,-0.
 00013113,-0.00087688,-0.00056675,0.00086531,-0.00435725,0.00095763,-0.
 00177610,-0.00021983,0.00044263,-0.00097934,0.00004100,-0.00006074,0.0
 0008808,0.00085703,0.00110423,-0.00182420,0.00932724,0.00346548,-0.006
 75474,-0.20354181,-0.06348338,0.12848332,-0.01462969,-0.00969323,0.019
 76861,-0.00000345,0.00000707,0.00000765,-0.00000031,0.00000274,0.00000
 172,-0.00000789,0.00000288,0.00000288,0.00001661,-0.00000341,-0.000003
 67,0.00030511,0.00013967,-0.00031985,0.00051675,-0.00026160,0.00024713
 ,0.21158854,-0.00003336,0.00006664,0.00002404,0.00008073,0.00002087,-0
 .00000008,-0.00004385,-0.00000529,-0.00001175,-0.00000623,-0.00000961,
 0.00001190,0.00000304,-0.00001042,-0.00000384,-0.00000987,0.00000054,0
 .00000502,0.00001349,-0.00001185,-0.00000872,0.00014655,-0.00022986,-0
 .00000080,-0.00036511,0.00061323,-0.00021758,0.00190880,0.00567803,0.0
 0254137,0.00067626,-0.00068104,-0.00024660,-0.00014802,-0.00046553,-0.
 00022508,0.00128459,0.00420119,0.00478472,-0.01088571,0.00076231,0.007
 43443,-0.06356957,-0.07191976,0.06511049,0.00385563,0.00516958,-0.0021
 0040,0.00000398,-0.00000168,-0.00000310,-0.00000201,0.00000066,-0.0000
 0109,-0.00000044,0.00000002,-0.00000054,-0.00000169,-0.00000154,-0.000
 00004,-0.00051311,-0.00015074,0.00034071,-0.00002275,-0.00300464,-0.00
 209574,0.06777435,0.06349860,0.00003628,0.00003360,-0.00015040,0.00006
 047,0.00002698,0.00000427,-0.00002129,0.00001783,-0.00001186,-0.000003
 14,-0.00001104,0.00001468,0.00000210,-0.00000319,-0.00000259,0.0000046
 3,-0.00000353,0.00000829,-0.00000526,-0.00003149,-0.00001213,0.0000186
 7,-0.00001896,0.00006318,0.00017704,-0.00007271,0.00042448,-0.00287870
 ,0.00262332,0.00202430,-0.00092020,-0.00034229,-0.00020793,0.00010489,
 -0.00027518,-0.00006943,-0.00215815,0.00488497,-0.00257152,0.02081560,
 0.00676429,-0.00942416,0.12900444,0.06511138,-0.16915571,-0.00751581,-
 0.00159747,0.00766929,0.00000368,-0.00000308,-0.00000131,0.00000049,-0
 .00000073,-0.00000196,0.00000260,-0.00000129,-0.00000325,-0.00000836,0
 .00000484,0.00000068,0.00093075,0.00027259,-0.00058918,-0.00018518,-0.
 00208205,-0.00012137,-0.13756314,-0.07319060,0.17260505,0.00002165,-0.
 00024472,0.00016795,-0.00000087,0.00002435,0.00008054,-0.00008806,-0.0
 0001869,-0.00002254,0.00001014,0.00001793,-0.00003569,0.00002008,0.000
 00595,-0.00000057,0.00000430,-0.00004168,-0.00002177,-0.00008311,0.000
 01847,-0.00002668,-0.00094424,0.00045066,-0.00032567,0.00305619,-0.000
 61824,0.00077272,0.00597996,-0.01044522,0.02080733,-0.00233886,-0.0006
 7700,0.00154431,-0.00019774,-0.00060321,0.00123814,-0.00131522,-0.0003
 1105,0.00061364,-0.00499805,0.00045772,-0.00053107,-0.00095454,0.01346
 382,-0.02575328,-0.07502299,0.03307374,-0.06354024,-0.00000330,0.00000
 051,0.00000081,0.00000419,-0.00000323,0.00000189,0.00000531,-0.0000020
 8,0.00000259,-0.00000474,-0.00000160,0.00000826,0.00004185,0.00002797,
 -0.00004219,-0.00022420,0.00062424,-0.00116327,0.00085899,-0.00014568,
 0.00009758,0.07617324,0.00007990,-0.00043563,0.00034218,0.00044194,0.0
 0014629,0.00005732,-0.00013810,-0.00038782,-0.00018404,-0.00015788,-0.
 00003713,-0.00000092,0.00003498,0.00003265,0.00001057,-0.00001699,-0.0
 0004457,-0.00003347,-0.00006834,-0.00000858,-0.00000900,-0.00054284,-0
 .00017488,-0.00101700,0.00069092,-0.00062086,-0.00110483,0.00505596,-0
 .00035187,0.00717124,-0.00106267,0.00377963,0.00254336,-0.00007113,-0.
 00043178,0.00018115,-0.00065915,-0.00055124,-0.00048925,0.00076706,0.0
 0571212,0.00170169,-0.00038453,0.00122693,0.00240755,0.03108474,-0.096
 21467,0.12374038,0.00000964,-0.00001657,-0.00000836,-0.00001151,0.0000
 0034,-0.00000138,-0.00000072,-0.00000344,-0.00000107,-0.00001948,0.000
 00408,0.00001261,-0.00001179,-0.00042052,-0.00018307,-0.00001124,0.000
 50124,0.00037718,0.00004419,-0.00351969,-0.00210617,-0.03505297,0.0918
 1597,-0.00003841,-0.00006641,0.00005875,0.00063008,0.00028688,0.000062
 29,-0.00034101,-0.00026484,-0.00005216,-0.00021833,-0.00006393,0.00003
 363,0.00002746,0.00002896,0.00000099,-0.00003687,-0.00003292,-0.000001
 74,-0.00001045,-0.00005030,-0.00002116,0.00065996,-0.00023976,-0.00030
 159,-0.00159323,-0.00038077,-0.00039079,-0.00639867,0.00688266,-0.0104
 1389,0.00251658,0.00243942,0.00068091,0.00006971,0.00025006,-0.0007574
 5,0.00079842,-0.00065110,0.00030226,-0.00126024,0.00196559,0.00294127,
 0.00155878,0.00234506,-0.00172077,-0.06242240,0.12301875,-0.26926012,0
 .00001961,-0.00002277,-0.00001233,-0.00001974,0.00000142,-0.00000241,-
 0.00000337,-0.00000396,-0.00000255,-0.00002499,0.00000255,-0.00000414,
 0.00000867,-0.00020889,-0.00015091,0.00006883,0.00031770,-0.00007072,-
 0.00011761,-0.00214673,-0.00049144,0.06612723,-0.13340666,0.27957407\\
 -0.00000027,-0.00000040,0.00000073,0.00000011,0.00000068,-0.00000006,0
 .00000005,-0.00000028,-0.00000118,0.00000087,-0.00000045,-0.00000059,0
 .00000007,0.00000008,-0.00000022,0.00000065,0.00000039,0.00000096,-0.0
 0000023,0.00000042,0.00000098,-0.00000054,0.00000027,0.00000068,-0.000
 00049,-0.00000019,0.00000029,-0.00000098,-0.00000053,-0.00000047,0.000
 00114,-0.00000041,0.00000121,-0.00000159,0.00000024,0.00000282,0.00000
 051,-0.00000026,0.00000076,0.00000009,0.00000004,0.00000009,-0.0000002
 3,-0.00000115,-0.00000047,0.00000129,-0.00000057,0.00000107,0.00000028
 ,0.00000044,-0.00000058,0.00000013,0.00000013,-0.00000015,-0.00000052,
 -0.00000006,0.00000058,-0.00000013,0.00000020,0.00000107,-0.00000039,0
 .00000061,-0.00000178,0.00000041,-0.00000009,-0.00000056,0.00000044,0.
 00000017,-0.00000122,-0.00000067,0.00000074,-0.00000395\\\@
 The archive entry for this job was punched.


 EVERYTHING'S GOT A MORAL, IF ONLY YOU CAN FIND IT.

                                    -- LEWIS CARROL, ALICE IN WONDERLAND
 Job cpu time:       0 days  0 hours 26 minutes  4.1 seconds.
 Elapsed time:       0 days  0 hours  2 minutes 23.2 seconds.
 File lengths (MBytes):  RWF=    245 Int=      0 D2E=      0 Chk=      6 Scr=      1
 Normal termination of Gaussian 16 at Fri Mar  6 17:34:18 2026.
