 Entering Gaussian System, Link 0=g16
 Initial command:
 /prod/precompiled/gaussian/16c2/g16/l1.exe "/scratch/ucsscms/svela/2076361/Gau-958925.inp" -scrdir="/scratch/ucsscms/svela/2076361/"
 Entering Link 1 = /prod/precompiled/gaussian/16c2/g16/l1.exe PID=    958929.
  
 Copyright (c) 1988-2021, Gaussian, Inc.  All Rights Reserved.
  
 This is part of the Gaussian(R) 16 program.  It is based on
 the Gaussian(R) 09 system (copyright 2009, Gaussian, Inc.),
 the Gaussian(R) 03 system (copyright 2003, Gaussian, Inc.),
 the Gaussian(R) 98 system (copyright 1998, Gaussian, Inc.),
 the Gaussian(R) 94 system (copyright 1995, Gaussian, Inc.),
 the Gaussian 92(TM) system (copyright 1992, Gaussian, Inc.),
 the Gaussian 90(TM) system (copyright 1990, Gaussian, Inc.),
 the Gaussian 88(TM) system (copyright 1988, Gaussian, Inc.),
 the Gaussian 86(TM) system (copyright 1986, Carnegie Mellon
 University), and the Gaussian 82(TM) system (copyright 1983,
 Carnegie Mellon University). Gaussian is a federally registered
 trademark of Gaussian, Inc.
  
 This software contains proprietary and confidential information,
 including trade secrets, belonging to Gaussian, Inc.
  
 This software is provided under written license and may be
 used, copied, transmitted, or stored only in accord with that
 written license.
  
 The following legend is applicable only to US Government
 contracts under FAR:
  
                    RESTRICTED RIGHTS LEGEND
  
 Use, reproduction and disclosure by the US Government is
 subject to restrictions as set forth in subparagraphs (a)
 and (c) of the Commercial Computer Software - Restricted
 Rights clause in FAR 52.227-19.
  
 Gaussian, Inc.
 340 Quinnipiac St., Bldg. 40, Wallingford CT 06492
  
  
 ---------------------------------------------------------------
 Warning -- This program may not be used in any manner that
 competes with the business of Gaussian, Inc. or will provide
 assistance to any competitor of Gaussian, Inc.  The licensee
 of this program is prohibited from giving any competitor of
 Gaussian, Inc. access to this program.  By using this program,
 the user acknowledges that Gaussian, Inc. is engaged in the
 business of creating and licensing software in the field of
 computational chemistry and represents and warrants to the
 licensee that it is not a competitor of Gaussian, Inc. and that
 it will not use this program in any manner prohibited above.
 ---------------------------------------------------------------
  

 Cite this work as:
 Gaussian 16, Revision C.02,
 M. J. Frisch, G. W. Trucks, H. B. Schlegel, G. E. Scuseria, 
 M. A. Robb, J. R. Cheeseman, G. Scalmani, V. Barone, 
 G. A. Petersson, H. Nakatsuji, X. Li, M. Caricato, A. V. Marenich, 
 J. Bloino, B. G. Janesko, R. Gomperts, B. Mennucci, H. P. Hratchian, 
 J. V. Ortiz, A. F. Izmaylov, J. L. Sonnenberg, D. Williams-Young, 
 F. Ding, F. Lipparini, F. Egidi, J. Goings, B. Peng, A. Petrone, 
 T. Henderson, D. Ranasinghe, V. G. Zakrzewski, J. Gao, N. Rega, 
 G. Zheng, W. Liang, M. Hada, M. Ehara, K. Toyota, R. Fukuda, 
 J. Hasegawa, M. Ishida, T. Nakajima, Y. Honda, O. Kitao, H. Nakai, 
 T. Vreven, K. Throssell, J. A. Montgomery, Jr., J. E. Peralta, 
 F. Ogliaro, M. J. Bearpark, J. J. Heyd, E. N. Brothers, K. N. Kudin, 
 V. N. Staroverov, T. A. Keith, R. Kobayashi, J. Normand, 
 K. Raghavachari, A. P. Rendell, J. C. Burant, S. S. Iyengar, 
 J. Tomasi, M. Cossi, J. M. Millam, M. Klene, C. Adamo, R. Cammi, 
 J. W. Ochterski, R. L. Martin, K. Morokuma, O. Farkas, 
 J. B. Foresman, and D. J. Fox, Gaussian, Inc., Wallingford CT, 2019.
 
 ******************************************
 Gaussian 16:  ES64L-G16RevC.02  7-Dec-2021
                 6-Mar-2026 
 ******************************************
 %nprocs=12
 Will use up to   12 processors via shared memory.
 %mem=18gb
 %chk=test_tsrot_b_t_opt_r1.chk
 ----------------------------------------------------------------------
 #p nosymm scf=(maxconventionalcycles=200,xqc) UwB97XD def2SVP opt=(Rec
 alcFC=30,cartesian,skipdihedral)
 ----------------------------------------------------------------------
 1/10=7,18=10,26=3,38=1,71=30,156=2/1,3;
 2/12=2,15=1,17=6,18=5,29=2,40=1/2;
 3/5=43,7=101,11=2,25=1,30=1,71=2,74=-58,116=2,140=1/1,2,3;
 4//1;
 5/5=2,8=3,13=1,38=5,85=200/2,8;
 8/6=4,10=90,11=11/1;
 11/6=1,8=1,9=11,15=111,16=1,31=1/1,2,10;
 10/6=1,31=1/2;
 6/7=2,8=2,9=2,10=2,28=1/1;
 7/7=1,10=1,25=1,30=1/1,2,3,16;
 1/10=7,18=10,26=3,71=30,156=2/3(3);
 2/15=1,29=1/2;
 7/7=1,9=1,25=1,30=1,44=-1/16;
 99/12=1/99;
 2/15=1,29=1/2;
 3/5=43,7=101,11=2,25=1,30=1,71=2,74=-58,116=2,140=1/1,2,3;
 4/5=5,16=3,69=1/1;
 5/5=2,8=3,13=1,38=5,85=200/2,8;
 8/6=4,10=90,11=11/1;
 11/6=1,8=1,9=11,15=111,16=1,31=1/1,2,10;
 10/6=1,31=1/2;
 7/7=1,10=1,25=1,30=1/1,2,3,16;
 1/18=10,26=3,71=30,156=2/3(-8);
 2/15=1,29=1/2;
 6/7=2,8=2,9=2,10=2,19=2,28=1/1;
 7/7=1,9=1,25=1,30=1,44=-1/16;
 99/9=1,12=1/99;
 Leave Link    1 at Fri Mar  6 16:25:19 2026, MaxMem=  2415919104 cpu:               0.1 elap:               0.1
 (Enter /prod/precompiled/gaussian/16c2/g16/l101.exe)
 ----------
 Title Card
 ----------
 Symbolic Z-matrix:
 Charge =  0 Multiplicity = 3
 C                    -0.66413  -1.24838  -0.03649 
 C                     0.        0.        0. 
 Cl                    1.71708   0.20353   0.15751 
 C                    -0.72041   1.20465  -0.08171 
 C                    -2.10678   1.20297  -0.19443 
 C                    -2.78441  -0.00731  -0.24222 
 C                    -2.07013  -1.21329  -0.17144 
 N                    -0.08666  -2.55028   0.06308 
 N                     1.15794  -2.55028   0.06308 
 C                     1.7541   -2.45271   1.33887 
 C                     1.48522  -3.31315   2.41617 
 Cl                    0.30371  -4.57509   2.32631 
 C                     2.21266  -3.21193   3.61235 
 C                     3.22449  -2.262     3.7471 
 C                     3.52239  -1.41758   2.68465 
 C                     2.79756  -1.5189    1.48968 
 H                    -0.19219   2.15482  -0.05083 
 H                    -2.6486    2.14482  -0.24435 
 H                    -3.869    -0.01518  -0.33177 
 H                    -2.62777  -2.14768  -0.21989 
 H                     2.00296  -3.88825   4.43626 
 H                     3.78705  -2.19425   4.67645 
 H                     4.32573  -0.68929   2.77662 
 H                     3.06599  -0.87433   0.65513 
 
 ITRead=  0  0  0  0  0  0  0  0  0  0  0  0  0  0  0  0  0  0  0  0
 ITRead=  0  0  0  0
 MicOpt= -1 -1 -1 -1 -1 -1 -1 -1 -1 -1 -1 -1 -1 -1 -1 -1 -1 -1 -1 -1
 MicOpt= -1 -1 -1 -1
 NAtoms=     24 NQM=       24 NQMF=       0 NMMI=      0 NMMIF=      0
                NMic=       0 NMicF=      0.
                    Isotopes and Nuclear Properties:
 (Nuclear quadrupole moments (NQMom) in fm**2, nuclear magnetic moments (NMagM)
  in nuclear magnetons)

  Atom         1           2           3           4           5           6           7           8           9          10
 IAtWgt=          12          12          35          12          12          12          12          14          14          12
 AtmWgt=  12.0000000  12.0000000  34.9688527  12.0000000  12.0000000  12.0000000  12.0000000  14.0030740  14.0030740  12.0000000
 NucSpn=           0           0           3           0           0           0           0           2           2           0
 AtZEff=  -0.0000000  -0.0000000  -0.0000000  -0.0000000  -0.0000000  -0.0000000  -0.0000000  -0.0000000  -0.0000000  -0.0000000
 NQMom=    0.0000000   0.0000000  -8.1650000   0.0000000   0.0000000   0.0000000   0.0000000   2.0440000   2.0440000   0.0000000
 NMagM=    0.0000000   0.0000000   0.8218740   0.0000000   0.0000000   0.0000000   0.0000000   0.4037610   0.4037610   0.0000000
 AtZNuc=   6.0000000   6.0000000  17.0000000   6.0000000   6.0000000   6.0000000   6.0000000   7.0000000   7.0000000   6.0000000

  Atom        11          12          13          14          15          16          17          18          19          20
 IAtWgt=          12          35          12          12          12          12           1           1           1           1
 AtmWgt=  12.0000000  34.9688527  12.0000000  12.0000000  12.0000000  12.0000000   1.0078250   1.0078250   1.0078250   1.0078250
 NucSpn=           0           3           0           0           0           0           1           1           1           1
 AtZEff=  -0.0000000  -0.0000000  -0.0000000  -0.0000000  -0.0000000  -0.0000000  -0.0000000  -0.0000000  -0.0000000  -0.0000000
 NQMom=    0.0000000  -8.1650000   0.0000000   0.0000000   0.0000000   0.0000000   0.0000000   0.0000000   0.0000000   0.0000000
 NMagM=    0.0000000   0.8218740   0.0000000   0.0000000   0.0000000   0.0000000   2.7928460   2.7928460   2.7928460   2.7928460
 AtZNuc=   6.0000000  17.0000000   6.0000000   6.0000000   6.0000000   6.0000000   1.0000000   1.0000000   1.0000000   1.0000000

  Atom        21          22          23          24
 IAtWgt=           1           1           1           1
 AtmWgt=   1.0078250   1.0078250   1.0078250   1.0078250
 NucSpn=           1           1           1           1
 AtZEff=  -0.0000000  -0.0000000  -0.0000000  -0.0000000
 NQMom=    0.0000000   0.0000000   0.0000000   0.0000000
 NMagM=    2.7928460   2.7928460   2.7928460   2.7928460
 AtZNuc=   1.0000000   1.0000000   1.0000000   1.0000000
 Leave Link  101 at Fri Mar  6 16:25:19 2026, MaxMem=  2415919104 cpu:               0.1 elap:               0.1
 (Enter /prod/precompiled/gaussian/16c2/g16/l103.exe)

 GradGradGradGradGradGradGradGradGradGradGradGradGradGradGradGradGradGrad
 Berny optimization.
 Initialization pass.
 No Z-matrix variables, so optimization will use Cartesian coordinates.
 Trust Radius=3.00D-01 FncErr=1.00D-07 GrdErr=1.00D-06 EigMax=2.50D+02 EigMin=1.00D-04
 Number of steps in this run=     82 maximum allowed number of steps=    144.
 Step   0 in ReCalcFC=30 IGetFC= 4 compute analytic Hessian.
 GradGradGradGradGradGradGradGradGradGradGradGradGradGradGradGradGradGrad

 Leave Link  103 at Fri Mar  6 16:25:20 2026, MaxMem=  2415919104 cpu:               0.1 elap:               0.1
 (Enter /prod/precompiled/gaussian/16c2/g16/l202.exe)
 ---------------------------------------------------------------------------------------------------
                            Z-MATRIX (ANGSTROMS AND DEGREES)
   CD    Cent   Atom    N1       Length/X        N2       Alpha/Y        N3        Beta/Z          J
 ---------------------------------------------------------------------------------------------------
      1      1  C        0  -0.664126         -1.248382         -0.036486
      2      2  C        0   0.000000          0.000000          0.000000
      3      3  Cl       0   1.717082          0.203531          0.157508
      4      4  C        0  -0.720405          1.204645         -0.081710
      5      5  C        0  -2.106785          1.202972         -0.194431
      6      6  C        0  -2.784408         -0.007308         -0.242217
      7      7  C        0  -2.070133         -1.213286         -0.171441
      8      8  N        0  -0.086658         -2.550275          0.063076
      9      9  N        0   1.157937         -2.550275          0.063076
     10     10  C        0   1.754103         -2.452708          1.338870
     11     11  C        0   1.485221         -3.313150          2.416172
     12     12  Cl       0   0.303712         -4.575090          2.326306
     13     13  C        0   2.212659         -3.211934          3.612352
     14     14  C        0   3.224485         -2.261999          3.747102
     15     15  C        0   3.522386         -1.417584          2.684646
     16     16  C        0   2.797563         -1.518903          1.489675
     17     17  H        0  -0.192190          2.154824         -0.050833
     18     18  H        0  -2.648600          2.144822         -0.244354
     19     19  H        0  -3.869001         -0.015176         -0.331768
     20     20  H        0  -2.627765         -2.147682         -0.219887
     21     21  H        0   2.002959         -3.888252          4.436261
     22     22  H        0   3.787047         -2.194247          4.676454
     23     23  H        0   4.325733         -0.689292          2.776624
     24     24  H        0   3.065994         -0.874333          0.655132
 ---------------------------------------------------------------------------------------------------
                         Z-Matrix orientation:                         
 ---------------------------------------------------------------------
 Center     Atomic      Atomic             Coordinates (Angstroms)
 Number     Number       Type             X           Y           Z
 ---------------------------------------------------------------------
      1          6           0       -0.664126   -1.248382   -0.036486
      2          6           0        0.000000    0.000000    0.000000
      3         17           0        1.717082    0.203531    0.157508
      4          6           0       -0.720405    1.204645   -0.081710
      5          6           0       -2.106785    1.202972   -0.194431
      6          6           0       -2.784408   -0.007308   -0.242217
      7          6           0       -2.070133   -1.213286   -0.171441
      8          7           0       -0.086658   -2.550275    0.063076
      9          7           0        1.157937   -2.550275    0.063076
     10          6           0        1.754103   -2.452708    1.338870
     11          6           0        1.485221   -3.313150    2.416172
     12         17           0        0.303712   -4.575090    2.326306
     13          6           0        2.212659   -3.211934    3.612352
     14          6           0        3.224485   -2.261999    3.747102
     15          6           0        3.522386   -1.417584    2.684646
     16          6           0        2.797563   -1.518903    1.489675
     17          1           0       -0.192190    2.154824   -0.050833
     18          1           0       -2.648600    2.144822   -0.244354
     19          1           0       -3.869001   -0.015176   -0.331768
     20          1           0       -2.627765   -2.147682   -0.219887
     21          1           0        2.002959   -3.888252    4.436261
     22          1           0        3.787047   -2.194247    4.676454
     23          1           0        4.325733   -0.689292    2.776624
     24          1           0        3.065994   -0.874333    0.655132
 ---------------------------------------------------------------------
                    Distance matrix (angstroms):
                    1          2          3          4          5
     1  C    0.000000
     2  C    1.414515   0.000000
     3  Cl   2.795682   1.736262   0.000000
     4  C    2.454089   1.405998   2.645902   0.000000
     5  C    2.848745   2.433822   3.967959   1.390956   0.000000
     6  C    2.465398   2.794933   4.524118   2.398896   1.387888
     7  C    1.412905   2.405599   4.056917   2.770597   2.416645
     8  N    1.427693   2.552526   3.293303   3.810777   4.270139
     9  N    2.241596   2.801553   2.811585   4.201018   4.981123
    10  C    3.031474   3.299277   2.907334   4.638693   5.533666
    11  C    3.859856   4.361276   4.185973   5.613793   6.333491
    12  Cl   4.193624   5.141536   5.434751   6.344501   6.749119
    13  C    5.044348   5.316152   4.883333   6.461821   7.255383
    14  C    5.519443   5.436425   4.608285   6.499198   7.480919
    15  C    4.996006   4.650169   3.503365   5.703515   6.844265
    16  C    3.792841   3.514620   2.430820   4.718375   5.856402
    17  H    3.435803   2.163975   2.737932   1.087568   2.142969
    18  H    3.936392   3.416878   4.794714   2.151353   1.087721
    19  H    3.446623   3.883229   5.611733   3.385875   2.146660
    20  H    2.167546   3.400888   4.954627   3.859431   3.391010
    21  H    5.838469   6.229828   5.927237   7.332556   8.015851
    22  H    6.551290   6.405128   5.518602   7.383069   8.366832
    23  H    5.755420   5.186206   3.802889   6.100867   7.333834
    24  H    3.812092   3.254839   1.796937   4.381998   5.638670
                    6          7          8          9         10
     6  C    0.000000
     7  C    1.403418   0.000000
     8  N    3.719911   2.403479   0.000000
     9  N    4.701273   3.501853   1.244595   0.000000
    10  C    5.392393   4.294413   2.241778   1.411589   0.000000
    11  C    6.018750   4.872957   2.930843   2.495226   1.404720
    12  Cl   6.082633   4.814105   3.061776   3.154645   2.753755
    13  C    7.077995   6.054254   4.280422   3.761328   2.440373
    14  C    7.556791   6.669914   4.961735   4.233884   2.828069
    15  C    7.094438   6.282932   4.602262   3.707592   2.451412
    16  C    6.036785   5.152395   3.379000   2.405678   1.408383
    17  H    3.380982   3.858158   4.707661   4.896302   5.191212
    18  H    2.156412   3.408347   5.357424   6.052121   6.559548
    19  H    1.088312   2.167279   4.570421   5.643823   6.352314
    20  H    2.146214   1.089218   2.588315   3.817550   4.660851
    21  H    7.737491   6.706448   5.028064   4.650698   3.422944
    22  H    8.494707   7.666220   6.034534   5.321864   3.916520
    23  H    7.754522   7.062065   5.504162   4.567443   3.433665
    24  H    5.981987   5.213244   3.619189   2.607680   2.163290
                   11         12         13         14         15
    11  C    0.000000
    12  Cl   1.731049   0.000000
    13  C    1.403659   2.675105   0.000000
    14  C    2.429266   3.987476   1.394391   0.000000
    15  C    2.795584   4.523065   2.407429   1.389458   0.000000
    16  C    2.408311   4.032310   2.777449   2.414628   1.401281
    17  H    6.228849   7.154610   6.928515   6.753244   5.834640
    18  H    7.345497   7.776995   8.197613   8.357327   7.703950
    19  H    6.862616   6.728277   7.922243   8.485454   8.105437
    20  H    5.022328   4.579188   6.264854   7.070990   6.840593
    21  H    2.163228   2.794834   1.086373   2.147502   3.388364
    22  H    3.414560   4.829620   2.155620   1.088467   2.154194
    23  H    3.883692   5.610603   3.395180   2.151275   1.088226
    24  H    3.398225   4.911072   3.864933   3.392789   2.149963
                   16         17         18         19         20
    16  C    0.000000
    17  H    4.980769   0.000000
    18  H    6.788993   2.464041   0.000000
    19  H    7.072618   4.278640   2.482461   0.000000
    20  H    5.722949   4.946935   4.292624   2.469973   0.000000
    21  H    3.863623   7.840374   8.941093   8.497925   6.793593
    22  H    3.404516   7.556189   9.190181   9.404558   8.070077
    23  H    2.163284   6.041121   8.111710   8.790347   7.710844
    24  H    1.088112   4.504436   6.525409   7.057356   5.899658
                   21         22         23         24
    21  H    0.000000
    22  H    2.471905   0.000000
    23  H    4.287542   2.482826   0.000000
    24  H    4.950827   4.293381   2.474250   0.000000
 Symmetry turned off by external request.
 Stoichiometry    C12H8Cl2N2(3)
 Framework group  C1[X(C12H8Cl2N2)]
 Deg. of freedom    66
 Full point group                 C1      NOp   1
 Rotational constants (GHZ):           0.7247101           0.3384484           0.2578778
 Leave Link  202 at Fri Mar  6 16:25:20 2026, MaxMem=  2415919104 cpu:               0.1 elap:               0.0
 (Enter /prod/precompiled/gaussian/16c2/g16/l301.exe)
 Standard basis: def2SVP (5D, 7F)
 Ernie: Thresh=  0.10000D-02 Tol=  0.10000D-05 Strict=F.
   272 basis functions,   480 primitive gaussians,   288 cartesian basis functions
    65 alpha electrons       63 beta electrons
       nuclear repulsion energy      1253.0296875639 Hartrees.
 IExCor= 4639 DFT=T Ex+Corr=wB97XD ExCW=0 ScaHFX=  1.000000
 ScaDFX=  1.000000  1.000000  1.000000  1.000000 ScalE2=  1.000000  1.000000
 IRadAn=      5 IRanWt=     -1 IRanGd=            0 ICorTp=0 IEmpDi=121
 HFx  wShort=  0.000000 wLong=  0.200000 cFull=  0.222036 cShort=  0.000000 cLong=  0.777964
 DFx  wShort=  0.000000 wLong=  0.200000 cFull=  0.000000 cShort=  0.000000 cLong=  1.000000
 NAtoms=   24 NActive=   24 NUniq=   24 SFac= 1.00D+00 NAtFMM=   60 NAOKFM=F Big=F
 Integral buffers will be    131072 words long.
 Raffenetti 2 integral format.
 Two-electron integral symmetry is turned off.
 R6Disp:  Grimme-D2 Dispersion energy=       -0.0149659452 Hartrees.
 Nuclear repulsion after empirical dispersion term =     1253.0147216186 Hartrees.
 Leave Link  301 at Fri Mar  6 16:25:20 2026, MaxMem=  2415919104 cpu:               0.1 elap:               0.2
 (Enter /prod/precompiled/gaussian/16c2/g16/l302.exe)
 NPDir=0 NMtPBC=     1 NCelOv=     1 NCel=       1 NClECP=     1 NCelD=      1
         NCelK=      1 NCelE2=     1 NClLst=     1 CellRange=     0.0.
 One-electron integrals computed using PRISM.
   1 Symmetry operations used in ECPInt.
 ECPInt:  NShTT=    7750 NPrTT=   30142 LenC2=    7246 LenP2D=   19798.
 LDataN:  DoStor=T MaxTD1= 4 Len=   56
 NBasis=   272 RedAO= T EigKep=  2.23D-04  NBF=   272
 NBsUse=   272 1.00D-06 EigRej= -1.00D+00 NBFU=   272
 Precomputing XC quadrature grid using
 IXCGrd= 4 IRadAn=           5 IRanWt=          -1 IRanGd=           0 AccXCQ= 0.00D+00.
 Generated NRdTot=       0 NPtTot=           0 NUsed=           0 NTot=          32
 NSgBfM=   286   286   286   286   286 MxSgAt=    24 MxSgA2=    24.
 Leave Link  302 at Fri Mar  6 16:25:21 2026, MaxMem=  2415919104 cpu:               1.8 elap:               0.5
 (Enter /prod/precompiled/gaussian/16c2/g16/l303.exe)
 DipDrv:  MaxL=1.
 Leave Link  303 at Fri Mar  6 16:25:21 2026, MaxMem=  2415919104 cpu:               0.2 elap:               0.0
 (Enter /prod/precompiled/gaussian/16c2/g16/l401.exe)
 ExpMin= 1.22D-01 ExpMax= 1.04D+04 ExpMxC= 1.57D+03 IAcc=3 IRadAn=         5 AccDes= 0.00D+00
 Harris functional with IExCor= 4639 and IRadAn=       5 diagonalized for initial guess.
 HarFok:  IExCor= 4639 AccDes= 0.00D+00 IRadAn=         5 IDoV= 1 UseB2=F ITyADJ=14
 ICtDFT=  3500011 ScaDFX=  1.000000  1.000000  1.000000  1.000000
 FoFCou: FMM=F IPFlag=           0 FMFlag=      100000 FMFlg1=           0
         NFxFlg=           0 DoJE=T BraDBF=F KetDBF=T FulRan=T
         wScrn=  0.000000 ICntrl=       500 IOpCl=  0 I1Cent=   200000004 NGrid=           0
         NMat0=    1 NMatS0=      1 NMatT0=    0 NMatD0=    1 NMtDS0=    0 NMtDT0=    0
 Symmetry not used in FoFCou.
 Harris En= -1450.67095538165    
 JPrj=0 DoOrth=F DoCkMO=F.
 Initial guess <Sx>= 0.0000 <Sy>= 0.0000 <Sz>= 1.0000 <S**2>= 2.0000 S= 1.0000
 Leave Link  401 at Fri Mar  6 16:25:21 2026, MaxMem=  2415919104 cpu:               5.0 elap:               0.5
 (Enter /prod/precompiled/gaussian/16c2/g16/l502.exe)
 Two-electron integral symmetry not used.
 UHF open shell SCF:
 Using DIIS extrapolation, IDIIS=  1040.
 NGot=  2415919104 LenX=  2415746906 LenY=  2415663521
 Requested convergence on RMS density matrix=1.00D-08 within 200 cycles.
 Requested convergence on MAX density matrix=1.00D-06.
 Requested convergence on             energy=1.00D-06.
 No special actions if energy rises.
 Fock matrices will be formed incrementally for  20 cycles.
 Integral accuracy reduced to 1.0D-05 until final iterations.

 Cycle   1  Pass 0  IDiag  1:
 FoFJK:  IHMeth= 1 ICntrl=       0 DoSepK=T KAlg= 0 I1Cent=           0 FoldK=F
 IRaf=         1 NMat=       1 IRICut=       1 DoRegI=T DoRafI=F ISym2E= 0 IDoP0=0 IntGTp=1.
 FoFCou: FMM=F IPFlag=           0 FMFlag=      100000 FMFlg1=           0
         NFxFlg=           0 DoJE=T BraDBF=F KetDBF=F FulRan=T
         wScrn=  0.000000 ICntrl=       500 IOpCl=  0 I1Cent=           0 NGrid=           0
         NMat0=    1 NMatS0=      1 NMatT0=    0 NMatD0=    1 NMtDS0=    0 NMtDT0=    0
 Symmetry not used in FoFCou.
 E= -1490.35248290179    
 DIIS: error= 3.82D-02 at cycle   1 NSaved=   1.
 NSaved= 1 IEnMin= 1 EnMin= -1490.35248290179     IErMin= 1 ErrMin= 3.82D-02
 ErrMax= 3.82D-02  0.00D+00 EMaxC= 1.00D-01 BMatC= 3.29D+00 BMatP= 3.29D+00
 IDIUse=3 WtCom= 6.18D-01 WtEn= 3.82D-01
 Coeff-Com:  0.100D+01
 Coeff-En:   0.100D+01
 Coeff:      0.100D+01
 Gap=     0.420 Goal=   None    Shift=    0.000
 Gap=     0.309 Goal=   None    Shift=    0.000
 GapD=    0.309 DampG=1.000 DampE=0.500 DampFc=0.5000 IDamp=-1.
 Damping current iteration by 5.00D-01
 RMSDP=7.64D-03 MaxDP=3.19D-01              OVMax= 4.71D-01

 Cycle   2  Pass 0  IDiag  1:
 RMSU=  3.77D-03    CP:  9.75D-01
 E= -1490.56114009369     Delta-E=       -0.208657191908 Rises=F Damp=T
 DIIS: error= 1.70D-02 at cycle   2 NSaved=   2.
 NSaved= 2 IEnMin= 2 EnMin= -1490.56114009369     IErMin= 2 ErrMin= 1.70D-02
 ErrMax= 1.70D-02  0.00D+00 EMaxC= 1.00D-01 BMatC= 4.59D-01 BMatP= 3.29D+00
 IDIUse=3 WtCom= 8.30D-01 WtEn= 1.70D-01
 Coeff-Com: -0.636D-01 0.106D+01
 Coeff-En:   0.154D+00 0.846D+00
 Coeff:     -0.265D-01 0.103D+01
 Gap=     0.470 Goal=   None    Shift=    0.000
 Gap=     0.309 Goal=   None    Shift=    0.000
 RMSDP=2.86D-03 MaxDP=8.04D-02 DE=-2.09D-01 OVMax= 3.38D-01

 Cycle   3  Pass 0  IDiag  1:
 RMSU=  2.84D-03    CP:  9.63D-01  9.95D-01
 E= -1490.82461689243     Delta-E=       -0.263476798741 Rises=F Damp=F
 DIIS: error= 1.22D-02 at cycle   3 NSaved=   3.
 NSaved= 3 IEnMin= 3 EnMin= -1490.82461689243     IErMin= 3 ErrMin= 1.22D-02
 ErrMax= 1.22D-02  0.00D+00 EMaxC= 1.00D-01 BMatC= 2.99D-01 BMatP= 4.59D-01
 IDIUse=3 WtCom= 8.78D-01 WtEn= 1.22D-01
 Coeff-Com: -0.151D+00 0.529D+00 0.621D+00
 Coeff-En:   0.000D+00 0.000D+00 0.100D+01
 Coeff:     -0.132D+00 0.465D+00 0.667D+00
 Gap=     0.332 Goal=   None    Shift=    0.000
 Gap=     0.277 Goal=   None    Shift=    0.000
 RMSDP=1.82D-03 MaxDP=7.45D-02 DE=-2.63D-01 OVMax= 1.51D-01

 Cycle   4  Pass 0  IDiag  1:
 RMSU=  1.35D-03    CP:  9.55D-01  1.19D+00  6.62D-01
 E= -1490.90591661590     Delta-E=       -0.081299723465 Rises=F Damp=F
 DIIS: error= 3.34D-03 at cycle   4 NSaved=   4.
 NSaved= 4 IEnMin= 4 EnMin= -1490.90591661590     IErMin= 4 ErrMin= 3.34D-03
 ErrMax= 3.34D-03  0.00D+00 EMaxC= 1.00D-01 BMatC= 2.47D-02 BMatP= 2.99D-01
 IDIUse=3 WtCom= 9.67D-01 WtEn= 3.34D-02
 Coeff-Com: -0.387D-01 0.724D-01 0.255D+00 0.711D+00
 Coeff-En:   0.000D+00 0.000D+00 0.000D+00 0.100D+01
 Coeff:     -0.374D-01 0.700D-01 0.246D+00 0.721D+00
 Gap=     0.312 Goal=   None    Shift=    0.000
 Gap=     0.267 Goal=   None    Shift=    0.000
 RMSDP=4.96D-04 MaxDP=1.58D-02 DE=-8.13D-02 OVMax= 4.89D-02

 Cycle   5  Pass 0  IDiag  1:
 RMSU=  3.17D-04    CP:  9.53D-01  1.20D+00  7.86D-01  9.03D-01
 E= -1490.91511542491     Delta-E=       -0.009198809015 Rises=F Damp=F
 DIIS: error= 1.23D-03 at cycle   5 NSaved=   5.
 NSaved= 5 IEnMin= 5 EnMin= -1490.91511542491     IErMin= 5 ErrMin= 1.23D-03
 ErrMax= 1.23D-03  0.00D+00 EMaxC= 1.00D-01 BMatC= 1.89D-03 BMatP= 2.47D-02
 IDIUse=3 WtCom= 9.88D-01 WtEn= 1.23D-02
 Coeff-Com:  0.968D-02-0.365D-01-0.331D-01 0.988D-01 0.961D+00
 Coeff-En:   0.000D+00 0.000D+00 0.000D+00 0.000D+00 0.100D+01
 Coeff:      0.956D-02-0.361D-01-0.327D-01 0.976D-01 0.962D+00
 Gap=     0.315 Goal=   None    Shift=    0.000
 Gap=     0.271 Goal=   None    Shift=    0.000
 RMSDP=2.50D-04 MaxDP=1.01D-02 DE=-9.20D-03 OVMax= 2.65D-02

 Cycle   6  Pass 0  IDiag  1:
 RMSU=  1.63D-04    CP:  9.52D-01  1.21D+00  7.87D-01  1.02D+00  1.29D+00
 E= -1490.91698059933     Delta-E=       -0.001865174415 Rises=F Damp=F
 DIIS: error= 6.09D-04 at cycle   6 NSaved=   6.
 NSaved= 6 IEnMin= 6 EnMin= -1490.91698059933     IErMin= 6 ErrMin= 6.09D-04
 ErrMax= 6.09D-04  0.00D+00 EMaxC= 1.00D-01 BMatC= 7.02D-04 BMatP= 1.89D-03
 IDIUse=3 WtCom= 9.94D-01 WtEn= 6.09D-03
 Coeff-Com:  0.147D-01-0.305D-01-0.827D-01-0.178D+00 0.388D+00 0.889D+00
 Coeff-En:   0.000D+00 0.000D+00 0.000D+00 0.000D+00 0.000D+00 0.100D+01
 Coeff:      0.146D-01-0.304D-01-0.822D-01-0.177D+00 0.385D+00 0.890D+00
 Gap=     0.319 Goal=   None    Shift=    0.000
 Gap=     0.273 Goal=   None    Shift=    0.000
 RMSDP=1.61D-04 MaxDP=7.97D-03 DE=-1.87D-03 OVMax= 1.70D-02

 Cycle   7  Pass 0  IDiag  1:
 RMSU=  7.26D-05    CP:  9.52D-01  1.21D+00  7.95D-01  1.07D+00  1.67D+00
                    CP:  1.14D+00
 E= -1490.91761871001     Delta-E=       -0.000638110685 Rises=F Damp=F
 DIIS: error= 2.50D-04 at cycle   7 NSaved=   7.
 NSaved= 7 IEnMin= 7 EnMin= -1490.91761871001     IErMin= 7 ErrMin= 2.50D-04
 ErrMax= 2.50D-04  0.00D+00 EMaxC= 1.00D-01 BMatC= 1.07D-04 BMatP= 7.02D-04
 IDIUse=3 WtCom= 9.97D-01 WtEn= 2.50D-03
 Coeff-Com:  0.134D-02 0.109D-02-0.153D-01-0.705D-01-0.560D-01 0.268D+00
 Coeff-Com:  0.871D+00
 Coeff-En:   0.000D+00 0.000D+00 0.000D+00 0.000D+00 0.000D+00 0.000D+00
 Coeff-En:   0.100D+01
 Coeff:      0.133D-02 0.109D-02-0.152D-01-0.704D-01-0.558D-01 0.267D+00
 Coeff:      0.872D+00
 Gap=     0.319 Goal=   None    Shift=    0.000
 Gap=     0.274 Goal=   None    Shift=    0.000
 RMSDP=5.56D-05 MaxDP=2.17D-03 DE=-6.38D-04 OVMax= 6.38D-03

 Cycle   8  Pass 0  IDiag  1:
 RMSU=  2.77D-05    CP:  9.52D-01  1.21D+00  7.95D-01  1.08D+00  1.77D+00
                    CP:  1.33D+00  1.13D+00
 E= -1490.91771226860     Delta-E=       -0.000093558582 Rises=F Damp=F
 DIIS: error= 1.14D-04 at cycle   8 NSaved=   8.
 NSaved= 8 IEnMin= 8 EnMin= -1490.91771226860     IErMin= 8 ErrMin= 1.14D-04
 ErrMax= 1.14D-04  0.00D+00 EMaxC= 1.00D-01 BMatC= 2.16D-05 BMatP= 1.07D-04
 IDIUse=3 WtCom= 9.99D-01 WtEn= 1.14D-03
 Coeff-Com: -0.370D-02 0.829D-02 0.159D-01 0.251D-01-0.105D+00-0.127D+00
 Coeff-Com:  0.247D+00 0.939D+00
 Coeff-En:   0.000D+00 0.000D+00 0.000D+00 0.000D+00 0.000D+00 0.000D+00
 Coeff-En:   0.000D+00 0.100D+01
 Coeff:     -0.369D-02 0.828D-02 0.159D-01 0.250D-01-0.104D+00-0.127D+00
 Coeff:      0.247D+00 0.939D+00
 Gap=     0.319 Goal=   None    Shift=    0.000
 Gap=     0.274 Goal=   None    Shift=    0.000
 RMSDP=2.70D-05 MaxDP=1.56D-03 DE=-9.36D-05 OVMax= 2.85D-03

 Cycle   9  Pass 0  IDiag  1:
 RMSU=  1.42D-05    CP:  9.52D-01  1.22D+00  7.93D-01  1.08D+00  1.81D+00
                    CP:  1.39D+00  1.34D+00  1.24D+00
 E= -1490.91773177611     Delta-E=       -0.000019507516 Rises=F Damp=F
 DIIS: error= 6.29D-05 at cycle   9 NSaved=   9.
 NSaved= 9 IEnMin= 9 EnMin= -1490.91773177611     IErMin= 9 ErrMin= 6.29D-05
 ErrMax= 6.29D-05  0.00D+00 EMaxC= 1.00D-01 BMatC= 5.26D-06 BMatP= 2.16D-05
 IDIUse=1 WtCom= 1.00D+00 WtEn= 0.00D+00
 Coeff-Com: -0.178D-02 0.344D-02 0.807D-02 0.196D-01-0.388D-01-0.871D-01
 Coeff-Com: -0.411D-02 0.396D+00 0.705D+00
 Coeff:     -0.178D-02 0.344D-02 0.807D-02 0.196D-01-0.388D-01-0.871D-01
 Coeff:     -0.411D-02 0.396D+00 0.705D+00
 Gap=     0.320 Goal=   None    Shift=    0.000
 Gap=     0.274 Goal=   None    Shift=    0.000
 RMSDP=9.23D-06 MaxDP=4.75D-04 DE=-1.95D-05 OVMax= 1.04D-03

 Initial convergence to 1.0D-05 achieved.  Increase integral accuracy.
 Cycle  10  Pass 1  IDiag  1:
 E= -1490.91764486115     Delta-E=        0.000086914958 Rises=F Damp=F
 DIIS: error= 9.48D-05 at cycle   1 NSaved=   1.
 NSaved= 1 IEnMin= 1 EnMin= -1490.91764486115     IErMin= 1 ErrMin= 9.48D-05
 ErrMax= 9.48D-05  0.00D+00 EMaxC= 1.00D-01 BMatC= 5.70D-06 BMatP= 5.70D-06
 IDIUse=1 WtCom= 1.00D+00 WtEn= 0.00D+00
 Coeff-Com:  0.100D+01
 Coeff:      0.100D+01
 Gap=     0.320 Goal=   None    Shift=    0.000
 Gap=     0.274 Goal=   None    Shift=    0.000
 RMSDP=9.23D-06 MaxDP=4.75D-04 DE= 8.69D-05 OVMax= 7.19D-04

 Cycle  11  Pass 1  IDiag  1:
 RMSU=  1.11D-04    CP:  1.00D+00
 E= -1490.91764702036     Delta-E=       -0.000002159204 Rises=F Damp=F
 DIIS: error= 4.13D-05 at cycle   2 NSaved=   2.
 NSaved= 2 IEnMin= 2 EnMin= -1490.91764702036     IErMin= 2 ErrMin= 4.13D-05
 ErrMax= 4.13D-05  0.00D+00 EMaxC= 1.00D-01 BMatC= 1.36D-06 BMatP= 5.70D-06
 IDIUse=1 WtCom= 1.00D+00 WtEn= 0.00D+00
 Coeff-Com:  0.201D+00 0.799D+00
 Coeff:      0.201D+00 0.799D+00
 Gap=     0.320 Goal=   None    Shift=    0.000
 Gap=     0.274 Goal=   None    Shift=    0.000
 RMSDP=6.68D-06 MaxDP=1.99D-04 DE=-2.16D-06 OVMax= 4.93D-04

 Cycle  12  Pass 1  IDiag  1:
 RMSU=  4.53D-06    CP:  1.00D+00  1.04D+00
 E= -1490.91764757099     Delta-E=       -0.000000550632 Rises=F Damp=F
 DIIS: error= 3.54D-05 at cycle   3 NSaved=   3.
 NSaved= 3 IEnMin= 3 EnMin= -1490.91764757099     IErMin= 3 ErrMin= 3.54D-05
 ErrMax= 3.54D-05  0.00D+00 EMaxC= 1.00D-01 BMatC= 1.06D-06 BMatP= 1.36D-06
 IDIUse=1 WtCom= 1.00D+00 WtEn= 0.00D+00
 Coeff-Com: -0.693D-01 0.469D+00 0.601D+00
 Coeff:     -0.693D-01 0.469D+00 0.601D+00
 Gap=     0.320 Goal=   None    Shift=    0.000
 Gap=     0.274 Goal=   None    Shift=    0.000
 RMSDP=3.18D-06 MaxDP=1.38D-04 DE=-5.51D-07 OVMax= 3.18D-04

 Cycle  13  Pass 1  IDiag  1:
 RMSU=  2.51D-06    CP:  1.00D+00  1.06D+00  9.06D-01
 E= -1490.91764804675     Delta-E=       -0.000000475755 Rises=F Damp=F
 DIIS: error= 1.86D-05 at cycle   4 NSaved=   4.
 NSaved= 4 IEnMin= 4 EnMin= -1490.91764804675     IErMin= 4 ErrMin= 1.86D-05
 ErrMax= 1.86D-05  0.00D+00 EMaxC= 1.00D-01 BMatC= 1.39D-07 BMatP= 1.06D-06
 IDIUse=1 WtCom= 1.00D+00 WtEn= 0.00D+00
 Coeff-Com: -0.427D-04-0.382D+00-0.380D+00 0.176D+01
 Coeff:     -0.427D-04-0.382D+00-0.380D+00 0.176D+01
 Gap=     0.320 Goal=   None    Shift=    0.000
 Gap=     0.274 Goal=   None    Shift=    0.000
 RMSDP=3.59D-06 MaxDP=2.36D-04 DE=-4.76D-07 OVMax= 5.49D-04

 Cycle  14  Pass 1  IDiag  1:
 RMSU=  1.54D-06    CP:  1.00D+00  1.06D+00  1.26D+00  2.12D+00
 E= -1490.91764842838     Delta-E=       -0.000000381632 Rises=F Damp=F
 DIIS: error= 1.14D-05 at cycle   5 NSaved=   5.
 NSaved= 5 IEnMin= 5 EnMin= -1490.91764842838     IErMin= 5 ErrMin= 1.14D-05
 ErrMax= 1.14D-05  0.00D+00 EMaxC= 1.00D-01 BMatC= 8.36D-08 BMatP= 1.39D-07
 IDIUse=1 WtCom= 1.00D+00 WtEn= 0.00D+00
 Coeff-Com:  0.359D-01-0.481D+00-0.565D+00 0.114D+01 0.873D+00
 Coeff:      0.359D-01-0.481D+00-0.565D+00 0.114D+01 0.873D+00
 Gap=     0.320 Goal=   None    Shift=    0.000
 Gap=     0.274 Goal=   None    Shift=    0.000
 RMSDP=2.71D-06 MaxDP=1.80D-04 DE=-3.82D-07 OVMax= 4.36D-04

 Cycle  15  Pass 1  IDiag  1:
 RMSU=  9.36D-07    CP:  1.00D+00  1.06D+00  1.55D+00  2.97D+00  1.35D+00
 E= -1490.91764858229     Delta-E=       -0.000000153909 Rises=F Damp=F
 DIIS: error= 4.49D-06 at cycle   6 NSaved=   6.
 NSaved= 6 IEnMin= 6 EnMin= -1490.91764858229     IErMin= 6 ErrMin= 4.49D-06
 ErrMax= 4.49D-06  0.00D+00 EMaxC= 1.00D-01 BMatC= 1.40D-08 BMatP= 8.36D-08
 IDIUse=1 WtCom= 1.00D+00 WtEn= 0.00D+00
 Coeff-Com:  0.734D-02-0.220D-01-0.387D-01-0.114D+00 0.150D+00 0.102D+01
 Coeff:      0.734D-02-0.220D-01-0.387D-01-0.114D+00 0.150D+00 0.102D+01
 Gap=     0.320 Goal=   None    Shift=    0.000
 Gap=     0.274 Goal=   None    Shift=    0.000
 RMSDP=1.00D-06 MaxDP=5.91D-05 DE=-1.54D-07 OVMax= 1.35D-04

 Cycle  16  Pass 1  IDiag  1:
 RMSU=  6.90D-07    CP:  1.00D+00  1.06D+00  1.62D+00  3.00D+00  1.65D+00
                    CP:  1.37D+00
 E= -1490.91764861321     Delta-E=       -0.000000030920 Rises=F Damp=F
 DIIS: error= 2.51D-06 at cycle   7 NSaved=   7.
 NSaved= 7 IEnMin= 7 EnMin= -1490.91764861321     IErMin= 7 ErrMin= 2.51D-06
 ErrMax= 2.51D-06  0.00D+00 EMaxC= 1.00D-01 BMatC= 6.27D-09 BMatP= 1.40D-08
 IDIUse=1 WtCom= 1.00D+00 WtEn= 0.00D+00
 Coeff-Com: -0.155D-01 0.229D+00 0.269D+00-0.586D+00-0.408D+00 0.288D+00
 Coeff-Com:  0.122D+01
 Coeff:     -0.155D-01 0.229D+00 0.269D+00-0.586D+00-0.408D+00 0.288D+00
 Coeff:      0.122D+01
 Gap=     0.320 Goal=   None    Shift=    0.000
 Gap=     0.274 Goal=   None    Shift=    0.000
 RMSDP=8.88D-07 MaxDP=5.45D-05 DE=-3.09D-08 OVMax= 1.37D-04

 Cycle  17  Pass 1  IDiag  1:
 RMSU=  3.58D-07    CP:  1.00D+00  1.06D+00  1.67D+00  3.00D+00  1.90D+00
                    CP:  1.89D+00  1.69D+00
 E= -1490.91764863000     Delta-E=       -0.000000016794 Rises=F Damp=F
 DIIS: error= 1.43D-06 at cycle   8 NSaved=   8.
 NSaved= 8 IEnMin= 8 EnMin= -1490.91764863000     IErMin= 8 ErrMin= 1.43D-06
 ErrMax= 1.43D-06  0.00D+00 EMaxC= 1.00D-01 BMatC= 1.30D-09 BMatP= 6.27D-09
 IDIUse=1 WtCom= 1.00D+00 WtEn= 0.00D+00
 Coeff-Com: -0.381D-02 0.296D-01 0.410D-01-0.264D-01-0.869D-01-0.280D+00
 Coeff-Com:  0.989D-01 0.123D+01
 Coeff:     -0.381D-02 0.296D-01 0.410D-01-0.264D-01-0.869D-01-0.280D+00
 Coeff:      0.989D-01 0.123D+01
 Gap=     0.320 Goal=   None    Shift=    0.000
 Gap=     0.274 Goal=   None    Shift=    0.000
 RMSDP=4.77D-07 MaxDP=2.99D-05 DE=-1.68D-08 OVMax= 8.24D-05

 Cycle  18  Pass 1  IDiag  1:
 RMSU=  1.82D-07    CP:  1.00D+00  1.06D+00  1.69D+00  3.00D+00  1.99D+00
                    CP:  2.09D+00  2.11D+00  1.56D+00
 E= -1490.91764863378     Delta-E=       -0.000000003777 Rises=F Damp=F
 DIIS: error= 4.60D-07 at cycle   9 NSaved=   9.
 NSaved= 9 IEnMin= 9 EnMin= -1490.91764863378     IErMin= 9 ErrMin= 4.60D-07
 ErrMax= 4.60D-07  0.00D+00 EMaxC= 1.00D-01 BMatC= 3.15D-10 BMatP= 1.30D-09
 IDIUse=1 WtCom= 1.00D+00 WtEn= 0.00D+00
 Coeff-Com:  0.183D-02-0.367D-01-0.405D-01 0.108D+00 0.574D-01-0.148D+00
 Coeff-Com: -0.228D+00 0.405D+00 0.881D+00
 Coeff:      0.183D-02-0.367D-01-0.405D-01 0.108D+00 0.574D-01-0.148D+00
 Coeff:     -0.228D+00 0.405D+00 0.881D+00
 Gap=     0.320 Goal=   None    Shift=    0.000
 Gap=     0.274 Goal=   None    Shift=    0.000
 RMSDP=1.60D-07 MaxDP=9.90D-06 DE=-3.78D-09 OVMax= 2.42D-05

 Cycle  19  Pass 1  IDiag  1:
 RMSU=  6.05D-08    CP:  1.00D+00  1.06D+00  1.70D+00  3.00D+00  2.01D+00
                    CP:  2.15D+00  2.20D+00  1.83D+00  1.30D+00
 E= -1490.91764863424     Delta-E=       -0.000000000458 Rises=F Damp=F
 DIIS: error= 2.06D-07 at cycle  10 NSaved=  10.
 NSaved=10 IEnMin=10 EnMin= -1490.91764863424     IErMin=10 ErrMin= 2.06D-07
 ErrMax= 2.06D-07  0.00D+00 EMaxC= 1.00D-01 BMatC= 9.34D-11 BMatP= 3.15D-10
 IDIUse=1 WtCom= 1.00D+00 WtEn= 0.00D+00
 Coeff-Com:  0.164D-02-0.224D-01-0.262D-01 0.507D-01 0.457D-01 0.504D-03
 Coeff-Com: -0.121D+00-0.103D+00 0.384D+00 0.791D+00
 Coeff:      0.164D-02-0.224D-01-0.262D-01 0.507D-01 0.457D-01 0.504D-03
 Coeff:     -0.121D+00-0.103D+00 0.384D+00 0.791D+00
 Gap=     0.320 Goal=   None    Shift=    0.000
 Gap=     0.274 Goal=   None    Shift=    0.000
 RMSDP=6.46D-08 MaxDP=2.67D-06 DE=-4.58D-10 OVMax= 7.64D-06

 Cycle  20  Pass 1  IDiag  1:
 RMSU=  3.50D-08    CP:  1.00D+00  1.06D+00  1.70D+00  3.00D+00  2.02D+00
                    CP:  2.16D+00  2.23D+00  1.91D+00  1.49D+00  1.18D+00
 E= -1490.91764863433     Delta-E=       -0.000000000094 Rises=F Damp=F
 DIIS: error= 9.20D-08 at cycle  11 NSaved=  11.
 NSaved=11 IEnMin=11 EnMin= -1490.91764863433     IErMin=11 ErrMin= 9.20D-08
 ErrMax= 9.20D-08  0.00D+00 EMaxC= 1.00D-01 BMatC= 1.45D-11 BMatP= 9.34D-11
 IDIUse=1 WtCom= 1.00D+00 WtEn= 0.00D+00
 Coeff-Com: -0.233D-03 0.635D-02 0.717D-02-0.215D-01-0.777D-02 0.372D-01
 Coeff-Com:  0.421D-01-0.119D+00-0.167D+00 0.900D-01 0.113D+01
 Coeff:     -0.233D-03 0.635D-02 0.717D-02-0.215D-01-0.777D-02 0.372D-01
 Coeff:      0.421D-01-0.119D+00-0.167D+00 0.900D-01 0.113D+01
 Gap=     0.320 Goal=   None    Shift=    0.000
 Gap=     0.274 Goal=   None    Shift=    0.000
 RMSDP=3.74D-08 MaxDP=1.32D-06 DE=-9.37D-11 OVMax= 4.01D-06

 Cycle  21  Pass 1  IDiag  1:
 RMSU=  1.61D-08    CP:  1.00D+00  1.06D+00  1.70D+00  3.00D+00  2.02D+00
                    CP:  2.17D+00  2.24D+00  1.95D+00  1.60D+00  1.49D+00
                    CP:  1.37D+00
 E= -1490.91764863437     Delta-E=       -0.000000000042 Rises=F Damp=F
 DIIS: error= 4.39D-08 at cycle  12 NSaved=  12.
 NSaved=12 IEnMin=12 EnMin= -1490.91764863437     IErMin=12 ErrMin= 4.39D-08
 ErrMax= 4.39D-08  0.00D+00 EMaxC= 1.00D-01 BMatC= 3.54D-12 BMatP= 1.45D-11
 IDIUse=1 WtCom= 1.00D+00 WtEn= 0.00D+00
 Coeff-Com: -0.364D-03 0.562D-02 0.671D-02-0.145D-01-0.107D-01 0.874D-02
 Coeff-Com:  0.329D-01-0.727D-02-0.109D+00-0.136D+00 0.237D+00 0.988D+00
 Coeff:     -0.364D-03 0.562D-02 0.671D-02-0.145D-01-0.107D-01 0.874D-02
 Coeff:      0.329D-01-0.727D-02-0.109D+00-0.136D+00 0.237D+00 0.988D+00
 Gap=     0.320 Goal=   None    Shift=    0.000
 Gap=     0.274 Goal=   None    Shift=    0.000
 RMSDP=1.50D-08 MaxDP=6.59D-07 DE=-4.18D-11 OVMax= 1.83D-06

 Cycle  22  Pass 1  IDiag  1:
 RMSU=  7.21D-09    CP:  1.00D+00  1.06D+00  1.70D+00  3.00D+00  2.02D+00
                    CP:  2.17D+00  2.24D+00  1.95D+00  1.63D+00  1.59D+00
                    CP:  1.60D+00  1.34D+00
 E= -1490.91764863437     Delta-E=        0.000000000004 Rises=F Damp=F
 DIIS: error= 2.54D-08 at cycle  13 NSaved=  13.
 NSaved=13 IEnMin=12 EnMin= -1490.91764863437     IErMin=13 ErrMin= 2.54D-08
 ErrMax= 2.54D-08  0.00D+00 EMaxC= 1.00D-01 BMatC= 1.17D-12 BMatP= 3.54D-12
 IDIUse=1 WtCom= 1.00D+00 WtEn= 0.00D+00
 Coeff-Com: -0.435D-04-0.160D-03 0.788D-04 0.191D-02-0.116D-02-0.863D-02
 Coeff-Com: -0.280D-02 0.344D-01 0.170D-01-0.642D-01-0.267D+00 0.330D+00
 Coeff-Com:  0.961D+00
 Coeff:     -0.435D-04-0.160D-03 0.788D-04 0.191D-02-0.116D-02-0.863D-02
 Coeff:     -0.280D-02 0.344D-01 0.170D-01-0.642D-01-0.267D+00 0.330D+00
 Coeff:      0.961D+00
 Gap=     0.320 Goal=   None    Shift=    0.000
 Gap=     0.274 Goal=   None    Shift=    0.000
 RMSDP=8.48D-09 MaxDP=3.66D-07 DE= 3.64D-12 OVMax= 1.07D-06

 SCF Done:  E(UwB97XD) =  -1490.91764863     A.U. after   22 cycles
            NFock= 22  Conv=0.85D-08     -V/T= 2.0050
 <Sx>= 0.0000 <Sy>= 0.0000 <Sz>= 1.0000 <S**2>= 2.0307 S= 1.0102
 <L.S>=  0.00000000000    
 KE= 1.483555659857D+03 PE=-6.016747356898D+03 EE= 1.789259326788D+03
 Annihilation of the first spin contaminant:
 S**2 before annihilation     2.0307,   after     2.0005
 Leave Link  502 at Fri Mar  6 16:25:55 2026, MaxMem=  2415919104 cpu:             318.4 elap:              33.9
 (Enter /prod/precompiled/gaussian/16c2/g16/l508.exe)
 QCSCF skips out because SCF is already converged.
 Leave Link  508 at Fri Mar  6 16:25:55 2026, MaxMem=  2415919104 cpu:               0.2 elap:               0.1
 (Enter /prod/precompiled/gaussian/16c2/g16/l801.exe)
 DoSCS=F DFT=T ScalE2(SS,OS)=  1.000000  1.000000
 Range of M.O.s used for correlation:     1   272
 NBasis=   272 NAE=    65 NBE=    63 NFC=     0 NFV=     0
 NROrb=    272 NOA=    65 NOB=    63 NVA=   207 NVB=   209

 **** Warning!!: The largest alpha MO coefficient is  0.15218167D+02


 **** Warning!!: The largest beta MO coefficient is  0.13515432D+02

 Leave Link  801 at Fri Mar  6 16:25:55 2026, MaxMem=  2415919104 cpu:               0.1 elap:               0.2
 (Enter /prod/precompiled/gaussian/16c2/g16/l1101.exe)
 Using compressed storage, NAtomX=    24.
 Will process     25 centers per pass.
   1 Symmetry operations used in ECPInt.
 ECPInt:  NShTT=    7750 NPrTT=   30142 LenC2=    7246 LenP2D=   19798.
 LDataN:  DoStor=T MaxTD1= 5 Len=  102
 R6Disp: Adding Grimme-D2 dispersion energy 1st derivatives to the gradient.
 Leave Link 1101 at Fri Mar  6 16:25:57 2026, MaxMem=  2415919104 cpu:               1.6 elap:               1.8
 (Enter /prod/precompiled/gaussian/16c2/g16/l1102.exe)
 Symmetrizing basis deriv contribution to polar:
 IMax=3 JMax=2 DiffMx= 0.00D+00
 Leave Link 1102 at Fri Mar  6 16:25:57 2026, MaxMem=  2415919104 cpu:               0.2 elap:               0.2
 (Enter /prod/precompiled/gaussian/16c2/g16/l1110.exe)
 Forming Gx(P) for the SCF density, NAtomX=    24.
 Integral derivatives from FoFJK, PRISM(SPDF).
 Do as many integral derivatives as possible in FoFJK.
 G2DrvN: MDV=    2415916544.
 G2DrvN: will do    25 centers at a time, making    1 passes.
 Calling FoFCou, ICntrl=  3107 FMM=F I1Cent=   0 AccDes= 0.00D+00.
 FoFJK:  IHMeth= 1 ICntrl=    3107 DoSepK=T KAlg= 0 I1Cent=           0 FoldK=F
 IRaf=         1 NMat=       1 IRICut=       1 DoRegI=T DoRafI=F ISym2E= 0 IDoP0=0 IntGTp=1.
 FoFCou: FMM=F IPFlag=           0 FMFlag=      100000 FMFlg1=           0
         NFxFlg=           0 DoJE=F BraDBF=F KetDBF=F FulRan=T
         wScrn=  0.000000 ICntrl=      3507 IOpCl=  0 I1Cent=           0 NGrid=           0
         NMat0=    1 NMatS0=      1 NMatT0=    0 NMatD0=    1 NMtDS0=    0 NMtDT0=    0
 Symmetry not used in FoFCou.
 End of G2Drv F.D. properties file   721 does not exist.
 End of G2Drv F.D. properties file   722 does not exist.
 End of G2Drv F.D. properties file   788 does not exist.
 Leave Link 1110 at Fri Mar  6 16:26:59 2026, MaxMem=  2415919104 cpu:             349.0 elap:              61.9
 (Enter /prod/precompiled/gaussian/16c2/g16/l1002.exe)
 Minotr:  UHF open shell wavefunction.
          IDoAtm=111111111111111111111111
          Direct CPHF calculation.
          Differentiating once with respect to electric field.
                with respect to dipole field.
          Differentiating once with respect to nuclear coordinates.
          Requested convergence is 1.0D-08 RMS, and 1.0D-07 maximum.
          Secondary convergence is 1.0D-12 RMS, and 1.0D-12 maximum.
          NewPWx=T KeepS1=F KeepF1=F KeepIn=T MapXYZ=F SortEE=F KeepMc=T.
         7195 words used for storage of precomputed grid.
 Two-electron integral symmetry not used.
          MDV=    2415919104 using IRadAn=       1.
          Solving linear equations simultaneously, MaxMat=     384.
 FoF2E skips out because all densities are zero.
 CalDSu exits because no D1Ps are significant.
 FoFJK:  IHMeth= 1 ICntrl=       0 DoSepK=T KAlg= 0 I1Cent=           0 FoldK=F
 IRaf=         1 NMat=      72 IRICut=       1 DoRegI=T DoRafI=F ISym2E= 0 IDoP0=3 IntGTp=3.
 FoFCou: FMM=F IPFlag=           0 FMFlag=      100000 FMFlg1=           0
         NFxFlg=           0 DoJE=F BraDBF=F KetDBF=F FulRan=T
         wScrn=  0.000000 ICntrl=       500 IOpCl=  0 I1Cent=           0 NGrid=           0
         NMat0=   72 NMatS0=     72 NMatT0=    0 NMatD0=   72 NMtDS0=    0 NMtDT0=    0
 Symmetry not used in FoFCou.
          There are    75 degrees of freedom in the 1st order CPHF.  IDoFFX=6 NUNeed=     3.
     72 vectors produced by pass  0 Test12= 3.55D-14 1.33D-09 XBig12= 2.14D+02 4.43D+00.
 AX will form    72 AO Fock derivatives at one time.
     72 vectors produced by pass  1 Test12= 3.55D-14 1.33D-09 XBig12= 2.06D+01 5.79D-01.
     72 vectors produced by pass  2 Test12= 3.55D-14 1.33D-09 XBig12= 1.88D+00 1.87D-01.
     72 vectors produced by pass  3 Test12= 3.55D-14 1.33D-09 XBig12= 5.30D-02 3.23D-02.
     72 vectors produced by pass  4 Test12= 3.55D-14 1.33D-09 XBig12= 1.14D-03 3.54D-03.
     72 vectors produced by pass  5 Test12= 3.55D-14 1.33D-09 XBig12= 1.74D-05 4.45D-04.
     72 vectors produced by pass  6 Test12= 3.55D-14 1.33D-09 XBig12= 1.86D-07 3.02D-05.
     53 vectors produced by pass  7 Test12= 3.55D-14 1.33D-09 XBig12= 2.00D-09 3.52D-06.
     23 vectors produced by pass  8 Test12= 3.55D-14 1.33D-09 XBig12= 1.87D-11 3.80D-07.
      3 vectors produced by pass  9 Test12= 3.55D-14 1.33D-09 XBig12= 1.70D-13 2.66D-08.
      2 vectors produced by pass 10 Test12= 3.55D-14 1.33D-09 XBig12= 1.43D-15 2.89D-09.
 InvSVY:  IOpt=1 It=  1 EMax= 1.29D-14
 Solved reduced A of dimension   585 with    75 vectors.
 FullF1:  Do perturbations      1 to       3.
 Isotropic polarizability for W=    0.000000      162.26 Bohr**3.
 End of Minotr F.D. properties file   721 does not exist.
 End of Minotr F.D. properties file   722 does not exist.
 End of Minotr F.D. properties file   788 does not exist.
 Leave Link 1002 at Fri Mar  6 16:28:22 2026, MaxMem=  2415919104 cpu:             869.2 elap:              82.2
 (Enter /prod/precompiled/gaussian/16c2/g16/l601.exe)
 Copying SCF densities to generalized density rwf, IOpCl= 1 IROHF=0.

 **********************************************************************

            Population analysis using the SCF Density.

 **********************************************************************

 Alpha  occ. eigenvalues -- -101.68916-101.67712 -14.51069 -14.50520 -10.38061
 Alpha  occ. eigenvalues --  -10.37095 -10.36813 -10.35670 -10.32722 -10.32646
 Alpha  occ. eigenvalues --  -10.32360 -10.32144 -10.31429 -10.31324 -10.31075
 Alpha  occ. eigenvalues --  -10.30882  -9.59918  -9.58512  -7.35274  -7.34320
 Alpha  occ. eigenvalues --   -7.34266  -7.33904  -7.32926  -7.32881  -1.17288
 Alpha  occ. eigenvalues --   -1.00945  -0.99762  -0.96091  -0.93583  -0.91007
 Alpha  occ. eigenvalues --   -0.86324  -0.84092  -0.83006  -0.79176  -0.72819
 Alpha  occ. eigenvalues --   -0.72114  -0.71515  -0.67219  -0.64324  -0.61919
 Alpha  occ. eigenvalues --   -0.60018  -0.59014  -0.57892  -0.56169  -0.55002
 Alpha  occ. eigenvalues --   -0.53761  -0.52924  -0.52083  -0.51024  -0.49620
 Alpha  occ. eigenvalues --   -0.48531  -0.47316  -0.47025  -0.45681  -0.44716
 Alpha  occ. eigenvalues --   -0.44238  -0.41948  -0.39672  -0.38989  -0.38421
 Alpha  occ. eigenvalues --   -0.34795  -0.33662  -0.31510  -0.29771  -0.28778
 Alpha virt. eigenvalues --    0.03203   0.04461   0.05477   0.05721   0.08791
 Alpha virt. eigenvalues --    0.12484   0.14994   0.16830   0.17854   0.19488
 Alpha virt. eigenvalues --    0.20984   0.21137   0.21754   0.22558   0.22651
 Alpha virt. eigenvalues --    0.25065   0.27657   0.29302   0.33049   0.33519
 Alpha virt. eigenvalues --    0.34890   0.35332   0.35545   0.36416   0.37294
 Alpha virt. eigenvalues --    0.38001   0.41530   0.42231   0.43725   0.46997
 Alpha virt. eigenvalues --    0.47153   0.47555   0.48655   0.49948   0.50829
 Alpha virt. eigenvalues --    0.51717   0.52821   0.53700   0.54080   0.54687
 Alpha virt. eigenvalues --    0.55469   0.55984   0.57336   0.58395   0.58954
 Alpha virt. eigenvalues --    0.59985   0.60701   0.61054   0.61816   0.62790
 Alpha virt. eigenvalues --    0.64264   0.66233   0.67039   0.67685   0.69416
 Alpha virt. eigenvalues --    0.70398   0.70913   0.71593   0.72585   0.73021
 Alpha virt. eigenvalues --    0.73792   0.74509   0.75071   0.76798   0.77007
 Alpha virt. eigenvalues --    0.77677   0.78456   0.79020   0.79257   0.79611
 Alpha virt. eigenvalues --    0.80363   0.80936   0.81332   0.82905   0.85173
 Alpha virt. eigenvalues --    0.85561   0.86101   0.86564   0.87841   0.88277
 Alpha virt. eigenvalues --    0.89260   0.91273   0.91920   0.92079   0.93520
 Alpha virt. eigenvalues --    0.95414   0.96042   0.97226   0.99531   1.00286
 Alpha virt. eigenvalues --    1.02965   1.04644   1.05362   1.08922   1.09539
 Alpha virt. eigenvalues --    1.12368   1.13567   1.16283   1.17476   1.20400
 Alpha virt. eigenvalues --    1.21879   1.24510   1.25789   1.28925   1.29339
 Alpha virt. eigenvalues --    1.30831   1.32800   1.33195   1.33976   1.34603
 Alpha virt. eigenvalues --    1.35282   1.36181   1.37376   1.37737   1.40041
 Alpha virt. eigenvalues --    1.43195   1.46984   1.48639   1.52574   1.56422
 Alpha virt. eigenvalues --    1.57198   1.58327   1.60719   1.64213   1.66269
 Alpha virt. eigenvalues --    1.73537   1.74750   1.77076   1.78029   1.79192
 Alpha virt. eigenvalues --    1.79546   1.80187   1.81182   1.83142   1.83618
 Alpha virt. eigenvalues --    1.84194   1.85054   1.85154   1.87560   1.89204
 Alpha virt. eigenvalues --    1.90169   1.91532   1.92437   1.96523   1.96826
 Alpha virt. eigenvalues --    1.98669   2.01107   2.01886   2.02363   2.04158
 Alpha virt. eigenvalues --    2.04526   2.06983   2.08916   2.10441   2.12001
 Alpha virt. eigenvalues --    2.15011   2.16253   2.17325   2.20514   2.21485
 Alpha virt. eigenvalues --    2.22808   2.23933   2.26616   2.31130   2.31758
 Alpha virt. eigenvalues --    2.32251   2.34311   2.34667   2.35540   2.36092
 Alpha virt. eigenvalues --    2.37407   2.37812   2.41462   2.44490   2.45248
 Alpha virt. eigenvalues --    2.48576   2.53975   2.56891   2.58994   2.65351
 Alpha virt. eigenvalues --    2.66524   2.66928   2.68237   2.69197   2.71209
 Alpha virt. eigenvalues --    2.72001   2.74511   2.78541   2.80560   2.81622
 Alpha virt. eigenvalues --    2.86407   2.89292   2.90215   2.90516   2.93966
 Alpha virt. eigenvalues --    2.97095   3.05352   3.07198   3.13544   3.14643
 Alpha virt. eigenvalues --    3.18522   3.24677   3.30914   3.33721   3.48125
 Alpha virt. eigenvalues --    3.65985   3.67287
  Beta  occ. eigenvalues -- -101.68891-101.67706 -14.49499 -14.48827 -10.37848
  Beta  occ. eigenvalues --  -10.37049 -10.36691 -10.35583 -10.32827 -10.32466
  Beta  occ. eigenvalues --  -10.32260 -10.32177 -10.31468 -10.31255 -10.30973
  Beta  occ. eigenvalues --  -10.30915  -9.59891  -9.58505  -7.35271  -7.34249
  Beta  occ. eigenvalues --   -7.34222  -7.33905  -7.32908  -7.32869  -1.13546
  Beta  occ. eigenvalues --   -1.00550  -0.99346  -0.95683  -0.93402  -0.89557
  Beta  occ. eigenvalues --   -0.85931  -0.83785  -0.82843  -0.77152  -0.71953
  Beta  occ. eigenvalues --   -0.71851  -0.70841  -0.66554  -0.63285  -0.61114
  Beta  occ. eigenvalues --   -0.59171  -0.58046  -0.56264  -0.55891  -0.53751
  Beta  occ. eigenvalues --   -0.52813  -0.52672  -0.50984  -0.49529  -0.47522
  Beta  occ. eigenvalues --   -0.46965  -0.46635  -0.46056  -0.44655  -0.43979
  Beta  occ. eigenvalues --   -0.43385  -0.41550  -0.38924  -0.38128  -0.36030
  Beta  occ. eigenvalues --   -0.34109  -0.32028  -0.31133
  Beta virt. eigenvalues --   -0.03719  -0.02170   0.03806   0.05107   0.06915
  Beta virt. eigenvalues --    0.07995   0.09628   0.12838   0.15080   0.16908
  Beta virt. eigenvalues --    0.17908   0.19588   0.21237   0.21617   0.22317
  Beta virt. eigenvalues --    0.22613   0.22734   0.25356   0.28334   0.30317
  Beta virt. eigenvalues --    0.33370   0.33740   0.35129   0.35621   0.36041
  Beta virt. eigenvalues --    0.36630   0.37708   0.38454   0.41944   0.42651
  Beta virt. eigenvalues --    0.44112   0.47246   0.47287   0.48387   0.49225
  Beta virt. eigenvalues --    0.50313   0.51222   0.52001   0.53091   0.53934
  Beta virt. eigenvalues --    0.54366   0.54917   0.55826   0.56312   0.57512
  Beta virt. eigenvalues --    0.58767   0.60190   0.60462   0.61010   0.61637
  Beta virt. eigenvalues --    0.62539   0.62993   0.64826   0.66559   0.67418
  Beta virt. eigenvalues --    0.68107   0.69918   0.70902   0.71049   0.71903
  Beta virt. eigenvalues --    0.72745   0.73210   0.74036   0.74907   0.75220
  Beta virt. eigenvalues --    0.77015   0.77286   0.77878   0.78585   0.79424
  Beta virt. eigenvalues --    0.79532   0.80378   0.80688   0.81375   0.81932
  Beta virt. eigenvalues --    0.83189   0.85601   0.86075   0.86476   0.86938
  Beta virt. eigenvalues --    0.88482   0.88612   0.89716   0.91716   0.92118
  Beta virt. eigenvalues --    0.92762   0.94957   0.96053   0.96953   0.98057
  Beta virt. eigenvalues --    0.99901   1.00810   1.03353   1.04944   1.06243
  Beta virt. eigenvalues --    1.09403   1.10300   1.12960   1.13963   1.16766
  Beta virt. eigenvalues --    1.18044   1.21276   1.22632   1.25167   1.26001
  Beta virt. eigenvalues --    1.29287   1.29594   1.31307   1.33068   1.33476
  Beta virt. eigenvalues --    1.34178   1.34834   1.35404   1.36414   1.37652
  Beta virt. eigenvalues --    1.38015   1.40434   1.43687   1.47554   1.49570
  Beta virt. eigenvalues --    1.53028   1.56709   1.57714   1.58653   1.61018
  Beta virt. eigenvalues --    1.64577   1.66753   1.73646   1.74855   1.77200
  Beta virt. eigenvalues --    1.78171   1.79313   1.79690   1.80505   1.81401
  Beta virt. eigenvalues --    1.83375   1.83884   1.84387   1.85255   1.85453
  Beta virt. eigenvalues --    1.87891   1.89336   1.90448   1.91882   1.92951
  Beta virt. eigenvalues --    1.97247   1.97556   1.99517   2.01573   2.02027
  Beta virt. eigenvalues --    2.02663   2.04352   2.04943   2.07734   2.10132
  Beta virt. eigenvalues --    2.11444   2.12565   2.15714   2.17932   2.19015
  Beta virt. eigenvalues --    2.20822   2.21653   2.23149   2.24500   2.27821
  Beta virt. eigenvalues --    2.31647   2.32519   2.32601   2.34618   2.35282
  Beta virt. eigenvalues --    2.35922   2.36489   2.37648   2.38128   2.41913
  Beta virt. eigenvalues --    2.45772   2.46266   2.49455   2.54899   2.59187
  Beta virt. eigenvalues --    2.60342   2.66176   2.67597   2.68032   2.68847
  Beta virt. eigenvalues --    2.69763   2.72316   2.73251   2.76869   2.80171
  Beta virt. eigenvalues --    2.80984   2.82337   2.87317   2.89426   2.90641
  Beta virt. eigenvalues --    2.91021   2.95011   2.98069   3.05976   3.08131
  Beta virt. eigenvalues --    3.13916   3.14944   3.19500   3.26148   3.32629
  Beta virt. eigenvalues --    3.35934   3.50459   3.66391   3.67858
          Condensed to atoms (all electrons):
               1          2          3          4          5          6
     1  C    5.179668   0.177027  -0.059669   0.078214  -0.133764   0.091897
     2  C    0.177027   5.358801   0.234878   0.344495   0.081138  -0.142932
     3  Cl  -0.059669   0.234878  17.172561  -0.055818   0.002790   0.000605
     4  C    0.078214   0.344495  -0.055818   4.950314   0.322014   0.067272
     5  C   -0.133764   0.081138   0.002790   0.322014   5.052420   0.274472
     6  C    0.091897  -0.142932   0.000605   0.067272   0.274472   5.072974
     7  C    0.309132   0.037963   0.002325  -0.100351   0.072098   0.309287
     8  N    0.389923  -0.077747  -0.005098   0.003250  -0.000304   0.006348
     9  N   -0.046963  -0.028577   0.006489   0.000437   0.000010  -0.000345
    10  C   -0.012652   0.005259  -0.019352  -0.000371   0.000018   0.000058
    11  C    0.003706  -0.000183  -0.003344  -0.000054   0.000003  -0.000006
    12  Cl   0.001565  -0.000038   0.000005  -0.000001   0.000000  -0.000006
    13  C   -0.000163   0.000007   0.000313   0.000001  -0.000000   0.000000
    14  C    0.000027  -0.000012  -0.000972  -0.000001   0.000000   0.000000
    15  C   -0.000169   0.000122   0.004619   0.000031  -0.000001  -0.000000
    16  C    0.000760   0.001153  -0.142152  -0.000491   0.000018   0.000009
    17  H    0.015769  -0.066843   0.000702   0.442927  -0.056201   0.013530
    18  H   -0.001647   0.013857  -0.000142  -0.059967   0.445654  -0.064659
    19  H    0.013233  -0.001808   0.000007   0.013008  -0.066150   0.448452
    20  H   -0.060429   0.018847  -0.000055  -0.002604   0.013451  -0.067131
    21  H   -0.000002   0.000000   0.000001   0.000000  -0.000000   0.000000
    22  H   -0.000000  -0.000000   0.000007   0.000000  -0.000000  -0.000000
    23  H   -0.000006  -0.000031   0.000982   0.000000   0.000000  -0.000000
    24  H    0.001693   0.002210  -0.055760  -0.000104   0.000012   0.000001
               7          8          9         10         11         12
     1  C    0.309132   0.389923  -0.046963  -0.012652   0.003706   0.001565
     2  C    0.037963  -0.077747  -0.028577   0.005259  -0.000183  -0.000038
     3  Cl   0.002325  -0.005098   0.006489  -0.019352  -0.003344   0.000005
     4  C   -0.100351   0.003250   0.000437  -0.000371  -0.000054  -0.000001
     5  C    0.072098  -0.000304   0.000010   0.000018   0.000003   0.000000
     6  C    0.309287   0.006348  -0.000345   0.000058  -0.000006  -0.000006
     7  C    5.063136  -0.078085   0.012955  -0.002144   0.000025   0.000075
     8  N   -0.078085   6.679841   0.211880  -0.044337  -0.014958   0.000913
     9  N    0.012955   0.211880   6.729828   0.332637  -0.064139  -0.000158
    10  C   -0.002144  -0.044337   0.332637   5.137855   0.291354  -0.062897
    11  C    0.000025  -0.014958  -0.064139   0.291354   5.195731   0.261057
    12  Cl   0.000075   0.000913  -0.000158  -0.062897   0.261057  16.920903
    13  C    0.000003  -0.000669   0.003034   0.066273   0.353657  -0.058376
    14  C   -0.000001   0.000083   0.000063  -0.120123   0.073678   0.003003
    15  C    0.000006  -0.000401   0.005954   0.060332  -0.132201   0.000665
    16  C   -0.000302   0.003265  -0.076701   0.374929   0.035249   0.001705
    17  H   -0.002251  -0.000046   0.000019   0.000012   0.000003   0.000000
    18  H    0.012194   0.000006   0.000000  -0.000000  -0.000000   0.000000
    19  H   -0.060731  -0.000085   0.000003  -0.000000  -0.000000  -0.000000
    20  H    0.445479  -0.003474   0.000038   0.000019   0.000026   0.000164
    21  H   -0.000000   0.000007  -0.000070   0.016545  -0.066778   0.001334
    22  H    0.000000   0.000000   0.000006  -0.002140   0.014483  -0.000120
    23  H    0.000000   0.000004  -0.000125   0.012864  -0.001353   0.000007
    24  H   -0.000025   0.000165  -0.002699  -0.050787   0.012878  -0.000080
              13         14         15         16         17         18
     1  C   -0.000163   0.000027  -0.000169   0.000760   0.015769  -0.001647
     2  C    0.000007  -0.000012   0.000122   0.001153  -0.066843   0.013857
     3  Cl   0.000313  -0.000972   0.004619  -0.142152   0.000702  -0.000142
     4  C    0.000001  -0.000001   0.000031  -0.000491   0.442927  -0.059967
     5  C   -0.000000   0.000000  -0.000001   0.000018  -0.056201   0.445654
     6  C    0.000000   0.000000  -0.000000   0.000009   0.013530  -0.064659
     7  C    0.000003  -0.000001   0.000006  -0.000302  -0.002251   0.012194
     8  N   -0.000669   0.000083  -0.000401   0.003265  -0.000046   0.000006
     9  N    0.003034   0.000063   0.005954  -0.076701   0.000019   0.000000
    10  C    0.066273  -0.120123   0.060332   0.374929   0.000012  -0.000000
    11  C    0.353657   0.073678  -0.132201   0.035249   0.000003  -0.000000
    12  Cl  -0.058376   0.003003   0.000665   0.001705   0.000000   0.000000
    13  C    4.983680   0.327381   0.064941  -0.108788  -0.000000   0.000000
    14  C    0.327381   5.021462   0.308777   0.055644   0.000000  -0.000000
    15  C    0.064941   0.308777   5.037823   0.320267  -0.000002   0.000000
    16  C   -0.108788   0.055644   0.320267   5.149599   0.000052  -0.000000
    17  H   -0.000000   0.000000  -0.000002   0.000052   0.638732  -0.011722
    18  H    0.000000  -0.000000   0.000000  -0.000000  -0.011722   0.645588
    19  H    0.000000   0.000000   0.000000   0.000000  -0.000226  -0.010866
    20  H   -0.000001   0.000000   0.000000  -0.000002   0.000012  -0.000204
    21  H    0.442619  -0.058607   0.013306  -0.002088  -0.000000  -0.000000
    22  H   -0.063685   0.447272  -0.067096   0.013855  -0.000000   0.000000
    23  H    0.012527  -0.065108   0.445057  -0.060227  -0.000000   0.000000
    24  H   -0.001396   0.011210  -0.048890   0.450097   0.000038  -0.000000
              19         20         21         22         23         24
     1  C    0.013233  -0.060429  -0.000002  -0.000000  -0.000006   0.001693
     2  C   -0.001808   0.018847   0.000000  -0.000000  -0.000031   0.002210
     3  Cl   0.000007  -0.000055   0.000001   0.000007   0.000982  -0.055760
     4  C    0.013008  -0.002604   0.000000   0.000000   0.000000  -0.000104
     5  C   -0.066150   0.013451  -0.000000  -0.000000   0.000000   0.000012
     6  C    0.448452  -0.067131   0.000000  -0.000000  -0.000000   0.000001
     7  C   -0.060731   0.445479  -0.000000   0.000000   0.000000  -0.000025
     8  N   -0.000085  -0.003474   0.000007   0.000000   0.000004   0.000165
     9  N    0.000003   0.000038  -0.000070   0.000006  -0.000125  -0.002699
    10  C   -0.000000   0.000019   0.016545  -0.002140   0.012864  -0.050787
    11  C   -0.000000   0.000026  -0.066778   0.014483  -0.001353   0.012878
    12  Cl  -0.000000   0.000164   0.001334  -0.000120   0.000007  -0.000080
    13  C    0.000000  -0.000001   0.442619  -0.063685   0.012527  -0.001396
    14  C    0.000000   0.000000  -0.058607   0.447272  -0.065108   0.011210
    15  C    0.000000   0.000000   0.013306  -0.067096   0.445057  -0.048890
    16  C    0.000000  -0.000002  -0.002088   0.013855  -0.060227   0.450097
    17  H   -0.000226   0.000012  -0.000000  -0.000000  -0.000000   0.000038
    18  H   -0.010866  -0.000204  -0.000000   0.000000   0.000000  -0.000000
    19  H    0.644536  -0.011148   0.000000  -0.000000  -0.000000  -0.000000
    20  H   -0.011148   0.635204  -0.000000   0.000000   0.000000   0.000000
    21  H    0.000000  -0.000000   0.645855  -0.011862  -0.000228   0.000012
    22  H   -0.000000   0.000000  -0.011862   0.654315  -0.011109  -0.000198
    23  H   -0.000000   0.000000  -0.000228  -0.011109   0.656102  -0.010903
    24  H   -0.000000   0.000000   0.000012  -0.000198  -0.010903   0.632048
          Atomic-Atomic Spin Densities.
               1          2          3          4          5          6
     1  C   -0.039068   0.006882   0.002349  -0.000349   0.000292   0.004102
     2  C    0.006882   0.180898  -0.025606  -0.001044  -0.008851  -0.002332
     3  Cl   0.002349  -0.025606   0.051739   0.001799   0.000190  -0.000010
     4  C   -0.000349  -0.001044   0.001799  -0.105201   0.005162   0.002788
     5  C    0.000292  -0.008851   0.000190   0.005162   0.175263  -0.005284
     6  C    0.004102  -0.002332  -0.000010   0.002788  -0.005284  -0.105492
     7  C   -0.003524   0.020105   0.000029  -0.003385  -0.006959   0.002784
     8  N   -0.029966  -0.006281   0.001013  -0.000180   0.000099  -0.000109
     9  N   -0.029907   0.014569  -0.006888  -0.000274  -0.000013   0.000026
    10  C   -0.002057   0.001123  -0.001230   0.000014  -0.000013   0.000010
    11  C   -0.002409  -0.000119  -0.000055   0.000009   0.000001   0.000001
    12  Cl  -0.000030   0.000002  -0.000000  -0.000000  -0.000000   0.000000
    13  C    0.000073   0.000022  -0.000011  -0.000000  -0.000000  -0.000000
    14  C   -0.000019   0.000008  -0.000006  -0.000000  -0.000000   0.000000
    15  C   -0.000089   0.000033  -0.000059  -0.000003  -0.000000   0.000000
    16  C    0.003431  -0.000845  -0.000068   0.000055   0.000002  -0.000002
    17  H   -0.000134  -0.001243   0.000833  -0.000552  -0.000261   0.000083
    18  H    0.000021  -0.000105  -0.000002   0.000118   0.001344   0.000137
    19  H   -0.000052   0.000061   0.000000   0.000002  -0.000298   0.000198
    20  H   -0.005349   0.000143   0.000004   0.000002  -0.000189   0.000195
    21  H   -0.000001  -0.000001   0.000000   0.000000   0.000000  -0.000000
    22  H    0.000000   0.000000  -0.000000  -0.000000  -0.000000   0.000000
    23  H    0.000003  -0.000004   0.000026   0.000000   0.000000  -0.000000
    24  H   -0.000252  -0.000081  -0.000196   0.000001   0.000000   0.000000
               7          8          9         10         11         12
     1  C   -0.003524  -0.029966  -0.029907  -0.002057  -0.002409  -0.000030
     2  C    0.020105  -0.006281   0.014569   0.001123  -0.000119   0.000002
     3  Cl   0.000029   0.001013  -0.006888  -0.001230  -0.000055  -0.000000
     4  C   -0.003385  -0.000180  -0.000274   0.000014   0.000009  -0.000000
     5  C   -0.006959   0.000099  -0.000013  -0.000013   0.000001  -0.000000
     6  C    0.002784  -0.000109   0.000026   0.000010   0.000001   0.000000
     7  C    0.173258  -0.013594   0.000926   0.000126  -0.000005   0.000020
     8  N   -0.013594   1.097693  -0.252045  -0.021751   0.012602  -0.002534
     9  N    0.000926  -0.252045   1.174083  -0.013322  -0.019741   0.002076
    10  C    0.000126  -0.021751  -0.013322   0.002535  -0.015621   0.002854
    11  C   -0.000005   0.012602  -0.019741  -0.015621   0.136714  -0.009680
    12  Cl   0.000020  -0.002534   0.002076   0.002854  -0.009680   0.014211
    13  C    0.000002  -0.000661   0.000595   0.002535  -0.006740  -0.000956
    14  C    0.000001  -0.000018   0.000027  -0.000623  -0.001446   0.000018
    15  C    0.000001  -0.000006   0.000623  -0.001491   0.002047  -0.000011
    16  C   -0.000015   0.000521  -0.014769   0.014871  -0.013748   0.000030
    17  H    0.000059  -0.000012   0.000038   0.000002   0.000001   0.000000
    18  H   -0.000085   0.000000  -0.000000  -0.000000  -0.000000  -0.000000
    19  H   -0.000745   0.000007   0.000001  -0.000000   0.000000  -0.000000
    20  H    0.001081   0.003721   0.000109  -0.000025   0.000016   0.000006
    21  H   -0.000000   0.000024  -0.000026  -0.000256   0.000551   0.000476
    22  H    0.000000  -0.000000   0.000000   0.000023  -0.000131  -0.000001
    23  H   -0.000000   0.000002  -0.000016   0.000125  -0.000140   0.000000
    24  H    0.000004   0.000099   0.001754   0.000108   0.000629   0.000000
              13         14         15         16         17         18
     1  C    0.000073  -0.000019  -0.000089   0.003431  -0.000134   0.000021
     2  C    0.000022   0.000008   0.000033  -0.000845  -0.001243  -0.000105
     3  Cl  -0.000011  -0.000006  -0.000059  -0.000068   0.000833  -0.000002
     4  C   -0.000000  -0.000000  -0.000003   0.000055  -0.000552   0.000118
     5  C   -0.000000  -0.000000  -0.000000   0.000002  -0.000261   0.001344
     6  C   -0.000000   0.000000   0.000000  -0.000002   0.000083   0.000137
     7  C    0.000002   0.000001   0.000001  -0.000015   0.000059  -0.000085
     8  N   -0.000661  -0.000018  -0.000006   0.000521  -0.000012   0.000000
     9  N    0.000595   0.000027   0.000623  -0.014769   0.000038  -0.000000
    10  C    0.002535  -0.000623  -0.001491   0.014871   0.000002  -0.000000
    11  C   -0.006740  -0.001446   0.002047  -0.013748   0.000001  -0.000000
    12  Cl  -0.000956   0.000018  -0.000011   0.000030   0.000000  -0.000000
    13  C   -0.035302  -0.001804  -0.000399   0.002015  -0.000000   0.000000
    14  C   -0.001804   0.070979   0.002939  -0.004522   0.000000  -0.000000
    15  C   -0.000399   0.002939  -0.036069  -0.006704   0.000002  -0.000000
    16  C    0.002015  -0.004522  -0.006704   0.105387  -0.000029   0.000000
    17  H   -0.000000   0.000000   0.000002  -0.000029   0.006073   0.000015
    18  H    0.000000  -0.000000  -0.000000   0.000000   0.000015  -0.008735
    19  H   -0.000000   0.000000   0.000000  -0.000000   0.000003   0.000049
    20  H   -0.000000   0.000000   0.000000  -0.000012   0.000008  -0.000001
    21  H   -0.001745   0.000068   0.000064  -0.000048   0.000000  -0.000000
    22  H    0.000189   0.000614   0.000060  -0.000059  -0.000000   0.000000
    23  H    0.000151  -0.000539  -0.001090   0.000422  -0.000000   0.000000
    24  H   -0.000132   0.000005   0.000233  -0.001110   0.000006  -0.000000
              19         20         21         22         23         24
     1  C   -0.000052  -0.005349  -0.000001   0.000000   0.000003  -0.000252
     2  C    0.000061   0.000143  -0.000001   0.000000  -0.000004  -0.000081
     3  Cl   0.000000   0.000004   0.000000  -0.000000   0.000026  -0.000196
     4  C    0.000002   0.000002   0.000000  -0.000000   0.000000   0.000001
     5  C   -0.000298  -0.000189   0.000000  -0.000000   0.000000   0.000000
     6  C    0.000198   0.000195  -0.000000   0.000000  -0.000000   0.000000
     7  C   -0.000745   0.001081  -0.000000   0.000000  -0.000000   0.000004
     8  N    0.000007   0.003721   0.000024  -0.000000   0.000002   0.000099
     9  N    0.000001   0.000109  -0.000026   0.000000  -0.000016   0.001754
    10  C   -0.000000  -0.000025  -0.000256   0.000023   0.000125   0.000108
    11  C    0.000000   0.000016   0.000551  -0.000131  -0.000140   0.000629
    12  Cl  -0.000000   0.000006   0.000476  -0.000001   0.000000   0.000000
    13  C   -0.000000  -0.000000  -0.001745   0.000189   0.000151  -0.000132
    14  C    0.000000   0.000000   0.000068   0.000614  -0.000539   0.000005
    15  C    0.000000   0.000000   0.000064   0.000060  -0.001090   0.000233
    16  C   -0.000000  -0.000012  -0.000048  -0.000059   0.000422  -0.001110
    17  H    0.000003   0.000008   0.000000  -0.000000  -0.000000   0.000006
    18  H    0.000049  -0.000001  -0.000000   0.000000   0.000000  -0.000000
    19  H    0.004575   0.000239   0.000000  -0.000000  -0.000000   0.000000
    20  H    0.000239  -0.005154   0.000000  -0.000000  -0.000000   0.000001
    21  H    0.000000   0.000000   0.003853  -0.000022  -0.000000   0.000003
    22  H   -0.000000  -0.000000  -0.000022  -0.003680   0.000019  -0.000001
    23  H   -0.000000  -0.000000  -0.000000   0.000019   0.003839  -0.000005
    24  H    0.000000   0.000001   0.000003  -0.000001  -0.000005  -0.004058
 Mulliken charges and spin densities:
               1          2
     1  C    0.052850  -0.096052
     2  C    0.042415   0.177337
     3  Cl  -0.083922   0.023853
     4  C   -0.002201  -0.101037
     5  C   -0.007678   0.160486
     6  C   -0.009828  -0.102905
     7  C   -0.020789   0.170083
     8  N   -0.070481   0.788624
     9  N   -0.083576   0.857824
    10  C    0.016649  -0.032064
    11  C    0.041167   0.082733
    12  Cl  -0.069719   0.006481
    13  C   -0.021356  -0.042168
    14  C   -0.003777   0.065683
    15  C   -0.013140  -0.039920
    16  C   -0.015852   0.084804
    17  H    0.025496   0.004891
    18  H    0.031907  -0.007242
    19  H    0.031773   0.004039
    20  H    0.031807  -0.005207
    21  H    0.019957   0.002940
    22  H    0.026272  -0.002989
    23  H    0.021546   0.002794
    24  H    0.060479  -0.002989
 Sum of Mulliken charges =  -0.00000   2.00000
 Mulliken charges and spin densities with hydrogens summed into heavy atoms:
               1          2
     1  C    0.052850  -0.096052
     2  C    0.042415   0.177337
     3  Cl  -0.083922   0.023853
     4  C    0.023296  -0.096146
     5  C    0.024229   0.153244
     6  C    0.021946  -0.098866
     7  C    0.011018   0.164875
     8  N   -0.070481   0.788624
     9  N   -0.083576   0.857824
    10  C    0.016649  -0.032064
    11  C    0.041167   0.082733
    12  Cl  -0.069719   0.006481
    13  C   -0.001399  -0.039228
    14  C    0.022495   0.062695
    15  C    0.008406  -0.037126
    16  C    0.044627   0.081815
 APT charges:
               1
     1  C    0.209220
     2  C    0.224332
     3  Cl  -0.268175
     4  C   -0.122030
     5  C   -0.019687
     6  C   -0.023969
     7  C   -0.048259
     8  N   -0.140285
     9  N   -0.319054
    10  C    0.180984
    11  C    0.350714
    12  Cl  -0.269627
    13  C   -0.151437
    14  C    0.002449
    15  C   -0.074537
    16  C   -0.016015
    17  H    0.062949
    18  H    0.043239
    19  H    0.043034
    20  H    0.067273
    21  H    0.057911
    22  H    0.036847
    23  H    0.035455
    24  H    0.138668
 Sum of APT charges =  -0.00000
 APT charges with hydrogens summed into heavy atoms:
               1
     1  C    0.209220
     2  C    0.224332
     3  Cl  -0.268175
     4  C   -0.059080
     5  C    0.023552
     6  C    0.019065
     7  C    0.019015
     8  N   -0.140285
     9  N   -0.319054
    10  C    0.180984
    11  C    0.350714
    12  Cl  -0.269627
    13  C   -0.093527
    14  C    0.039296
    15  C   -0.039082
    16  C    0.122653
 Electronic spatial extent (au):  <R**2>=           6057.6682
 Charge=             -0.0000 electrons
 Dipole moment (field-independent basis, Debye):
    X=             -0.7317    Y=              2.8093    Z=              0.8400  Tot=              3.0221
 Quadrupole moment (field-independent basis, Debye-Ang):
   XX=            -93.3651   YY=           -110.4920   ZZ=           -101.6263
   XY=              1.1895   XZ=              6.7654   YZ=             -1.9625
 Traceless Quadrupole moment (field-independent basis, Debye-Ang):
   XX=              8.4627   YY=             -8.6642   ZZ=              0.2015
   XY=              1.1895   XZ=              6.7654   YZ=             -1.9625
 Octapole moment (field-independent basis, Debye-Ang**2):
  XXX=           -211.6024  YYY=            526.2047  ZZZ=           -313.0724  XYY=            -86.0377
  XXY=            165.5395  XXZ=            -96.8760  XZZ=            -36.8145  YZZ=            142.7609
  YYZ=           -114.3364  XYZ=             -9.8496
 Hexadecapole moment (field-independent basis, Debye-Ang**3):
 XXXX=          -2337.7921 YYYY=          -3692.5824 ZZZZ=          -1926.3631 XXXY=            689.8692
 XXXZ=           -681.0998 YYYX=            695.8017 YYYZ=           1056.6126 ZZZX=           -632.1149
 ZZZY=            934.4943 XXYY=          -1022.8925 XXZZ=           -676.5668 YYZZ=           -898.4476
 XXYZ=            329.9314 YYXZ=           -239.3854 ZZXY=            151.4820
 N-N= 1.253014721619D+03 E-N=-6.016747355664D+03  KE= 1.483555659857D+03
  Exact polarizability:     195.553      -6.720     165.690      45.770     -29.778     125.549
 Approx polarizability:     217.222      17.399     195.378      28.946     -16.485     146.288
                          Isotropic Fermi Contact Couplings
        Atom                 a.u.       MegaHertz       Gauss      10(-4) cm-1
     1  C(13)              0.10602      59.59513      21.26502      19.87880
     2  C(13)              0.03095      17.39452       6.20680       5.80219
     3  Cl(35)             0.01340       2.93694       1.04797       0.97966
     4  C(13)             -0.02053     -11.53946      -4.11757      -3.84915
     5  C(13)              0.02762      15.52286       5.53894       5.17787
     6  C(13)             -0.02306     -12.96211      -4.62520      -4.32369
     7  C(13)              0.02234      12.55598       4.48029       4.18822
     8  N(14)              0.47928      77.42949      27.62877      25.82770
     9  N(14)              0.47077      76.05473      27.13822      25.36913
    10  C(13)              0.08722      49.02589      17.49366      16.35328
    11  C(13)              0.03669      20.62367       7.35904       6.87932
    12  Cl(35)             0.00344       0.75333       0.26881       0.25129
    13  C(13)             -0.00504      -2.83577      -1.01187      -0.94591
    14  C(13)              0.01096       6.16241       2.19890       2.05556
    15  C(13)             -0.00533      -2.99533      -1.06881      -0.99913
    16  C(13)              0.02835      15.93774       5.68698       5.31626
    17  H(1)               0.00137       3.05395       1.08973       1.01869
    18  H(1)              -0.00221      -4.92812      -1.75848      -1.64384
    19  H(1)               0.00124       2.77187       0.98907       0.92460
    20  H(1)              -0.00231      -5.17089      -1.84510      -1.72482
    21  H(1)               0.00086       1.92760       0.68782       0.64298
    22  H(1)              -0.00090      -2.00612      -0.71583      -0.66917
    23  H(1)               0.00094       2.09650       0.74808       0.69932
    24  H(1)              -0.00134      -2.98742      -1.06599      -0.99650
 --------------------------------------------------------
       Center         ----  Spin Dipole Couplings  ----
                      3XX-RR        3YY-RR        3ZZ-RR
 --------------------------------------------------------
     1   Atom        0.035706      0.176308     -0.212014
     2   Atom       -0.086690     -0.070604      0.157294
     3   Atom       -0.149635      0.021731      0.127905
     4   Atom        0.040686      0.046407     -0.087093
     5   Atom       -0.078209     -0.073008      0.151217
     6   Atom        0.040716      0.045991     -0.086707
     7   Atom       -0.070111     -0.082614      0.152725
     8   Atom       -0.757732     -0.461794      1.219526
     9   Atom       -0.860188      1.382908     -0.522720
    10   Atom       -0.016917     -0.096818      0.113735
    11   Atom       -0.003110     -0.024455      0.027564
    12   Atom        0.024074     -0.034454      0.010381
    13   Atom       -0.007458     -0.010378      0.017836
    14   Atom        0.006517      0.010791     -0.017308
    15   Atom       -0.002283     -0.012072      0.014356
    16   Atom        0.070073     -0.030025     -0.040048
    17   Atom        0.001625      0.002662     -0.004287
    18   Atom       -0.005051      0.006492     -0.001441
    19   Atom       -0.001091      0.004866     -0.003775
    20   Atom        0.011707     -0.002470     -0.009237
    21   Atom       -0.001130     -0.002304      0.003433
    22   Atom       -0.000196     -0.003934      0.004129
    23   Atom        0.000507     -0.001863      0.001355
    24   Atom        0.007294     -0.000266     -0.007028
 --------------------------------------------------------
                        XY            XZ            YZ
 --------------------------------------------------------
     1   Atom       -0.107812      0.027946     -0.022990
     2   Atom        0.006908     -0.025719     -0.002383
     3   Atom       -0.054046     -0.061010      0.093979
     4   Atom       -0.007211      0.011239     -0.003684
     5   Atom       -0.006931     -0.015804      0.001035
     6   Atom       -0.005185      0.010595     -0.000862
     7   Atom       -0.008559     -0.023026      0.001252
     8   Atom        0.282428     -0.234142      0.094349
[...]
    17  H    0.023527   0.006308
    18  H    0.032162  -0.009884
    19  H    0.030739   0.004700
    20  H    0.025951  -0.006567
    21  H    0.023545   0.006307
    22  H    0.032163  -0.009883
    23  H    0.030743   0.004699
    24  H    0.025968  -0.006564
 Sum of Mulliken charges =  -0.00000   2.00000
 Mulliken charges and spin densities with hydrogens summed into heavy atoms:
               1          2
     1  C    0.063373  -0.160394
     2  C    0.012823   0.225499
     3  Cl  -0.063682   0.025659
     4  C    0.008537  -0.122882
     5  C    0.022603   0.209035
     6  C    0.022333  -0.125845
     7  C    0.003054   0.202457
     8  N   -0.069062   0.746487
     9  N   -0.068994   0.746499
    10  C    0.063275  -0.160381
    11  C    0.012867   0.225489
    12  Cl  -0.063681   0.025649
    13  C    0.008564  -0.122871
    14  C    0.022599   0.209006
    15  C    0.022306  -0.125834
    16  C    0.003086   0.202427
 APT charges:
               1
     1  C   -0.472088
     2  C   -0.302456
     3  Cl   0.026657
     4  C   -0.480735
     5  C   -0.478838
     6  C   -0.462696
     7  C   -0.562335
     8  N    0.091955
     9  N   -0.182172
    10  C   -0.637839
    11  C   -0.456799
    12  Cl   0.030738
    13  C   -0.455889
    14  C   -0.600252
    15  C   -0.523917
    16  C   -0.341470
    17  H    0.438107
    18  H    0.735127
    19  H    0.790904
    20  H    0.541349
    21  H    0.817813
    22  H    1.293244
    23  H    0.994234
    24  H    0.197358
 Sum of APT charges =  -0.00000
 APT charges with hydrogens summed into heavy atoms:
               1
     1  C   -0.472088
     2  C   -0.302456
     3  Cl   0.026657
     4  C   -0.042628
     5  C    0.256289
     6  C    0.328208
     7  C   -0.020986
     8  N    0.091955
     9  N   -0.182172
    10  C   -0.637839
    11  C   -0.456799
    12  Cl   0.030738
    13  C    0.361924
    14  C    0.692992
    15  C    0.470317
    16  C   -0.144112
 Electronic spatial extent (au):  <R**2>=           5888.0343
 Charge=              0.0000 electrons
 Dipole moment (field-independent basis, Debye):
    X=             -0.1667    Y=              0.4093    Z=              0.5939  Tot=              0.7404
 Quadrupole moment (field-independent basis, Debye-Ang):
   XX=            -88.3660   YY=           -103.4544   ZZ=            -99.1433
   XY=             -5.1940   XZ=              8.9142   YZ=             -4.0075
 Traceless Quadrupole moment (field-independent basis, Debye-Ang):
   XX=              8.6219   YY=             -6.4665   ZZ=             -2.1554
   XY=             -5.1940   XZ=              8.9142   YZ=             -4.0075
 Octapole moment (field-independent basis, Debye-Ang**2):
  XXX=           -137.8409  YYY=            386.6280  ZZZ=           -352.8489  XYY=            -60.8921
  XXY=             97.0963  XXZ=           -113.3479  XZZ=            -26.0499  YZZ=             91.9724
  YYZ=           -124.3649  XYZ=            -23.3579
 Hexadecapole moment (field-independent basis, Debye-Ang**3):
 XXXX=          -2655.4232 YYYY=          -2470.1345 ZZZZ=          -2404.6110 XXXY=            608.3083
 XXXZ=           -735.5726 YYYX=            764.5524 YYYZ=            973.7682 ZZZX=           -779.7011
 ZZZY=            803.2565 XXYY=           -843.2403 XXZZ=           -827.7788 YYZZ=           -764.5701
 XXYZ=            234.3096 YYXZ=           -251.3963 ZZXY=            148.4506
 N-N= 1.235658989323D+03 E-N=-5.981966814469D+03  KE= 1.483169371015D+03
  Exact polarizability:       0.000       0.000       0.000       0.000       0.000       0.000
 Approx polarizability:     248.086     -16.569     154.891      40.550     -12.179     163.761
                          Isotropic Fermi Contact Couplings
        Atom                 a.u.       MegaHertz       Gauss      10(-4) cm-1
     1  C(13)              0.02638      14.82947       5.29152       4.94658
     2  C(13)              0.05054      28.40628      10.13607       9.47532
     3  Cl(35)             0.01412       3.09482       1.10431       1.03232
     4  C(13)             -0.02427     -13.64154      -4.86764      -4.55033
     5  C(13)              0.03746      21.05676       7.51357       7.02378
     6  C(13)             -0.03003     -16.87874      -6.02275      -5.63014
     7  C(13)              0.03755      21.10542       7.53094       7.04001
     8  N(14)              0.40459      65.36169      23.32268      21.80231
     9  N(14)              0.40461      65.36535      23.32398      21.80354
    10  C(13)              0.02644      14.85920       5.30213       4.95649
    11  C(13)              0.05052      28.39669      10.13264       9.47211
    12  Cl(35)             0.01404       3.07884       1.09861       1.02699
    13  C(13)             -0.02427     -13.64286      -4.86811      -4.55077
    14  C(13)              0.03746      21.05525       7.51304       7.02327
    15  C(13)             -0.03003     -16.87768      -6.02237      -5.62979
    16  C(13)              0.03754      21.09894       7.52863       7.03785
    17  H(1)               0.00177       3.95130       1.40992       1.31801
    18  H(1)              -0.00299      -6.67511      -2.38185      -2.22658
    19  H(1)               0.00140       3.12749       1.11597       1.04322
    20  H(1)              -0.00286      -6.38499      -2.27832      -2.12980
    21  H(1)               0.00177       3.95121       1.40989       1.31798
    22  H(1)              -0.00299      -6.67426      -2.38154      -2.22630
    23  H(1)               0.00140       3.12708       1.11582       1.04308
    24  H(1)              -0.00286      -6.38301      -2.27762      -2.12914
 --------------------------------------------------------
       Center         ----  Spin Dipole Couplings  ----
                      3XX-RR        3YY-RR        3ZZ-RR
 --------------------------------------------------------
     1   Atom        0.063028      0.113836     -0.176864
     2   Atom       -0.078790     -0.079579      0.158369
     3   Atom       -0.076608     -0.031059      0.107667
     4   Atom        0.039395      0.048573     -0.087969
     5   Atom       -0.066362     -0.099810      0.166172
     6   Atom        0.034566      0.051525     -0.086092
     7   Atom       -0.054138     -0.096814      0.150952
     8   Atom       -0.544388     -0.190331      0.734719
     9   Atom       -0.597996      0.933236     -0.335240
    10   Atom        0.058465     -0.183583      0.125119
    11   Atom       -0.118142      0.189808     -0.071666
    12   Atom       -0.175738      0.124321      0.051417
    13   Atom        0.054429     -0.100208      0.045779
    14   Atom       -0.107966      0.188573     -0.080607
    15   Atom        0.050964     -0.096865      0.045900
    16   Atom       -0.092745      0.171735     -0.078990
    17   Atom        0.004545     -0.000735     -0.003810
    18   Atom        0.003042     -0.000636     -0.002406
    19   Atom       -0.000197      0.004048     -0.003851
    20   Atom        0.002670      0.003852     -0.006522
    21   Atom        0.002730     -0.004187      0.001458
    22   Atom       -0.006060     -0.000609      0.006669
    23   Atom       -0.001994     -0.003367      0.005361
    24   Atom        0.008997     -0.008696     -0.000301
 --------------------------------------------------------
                        XY            XZ            YZ
 --------------------------------------------------------
     1   Atom       -0.095410      0.101580      0.001982
     2   Atom        0.019621     -0.110160     -0.042208
     3   Atom       -0.082087     -0.136390     -0.005605
     4   Atom       -0.016753      0.054104      0.019334
     5   Atom        0.007842     -0.100899     -0.043990
     6   Atom       -0.013025      0.051477      0.019536
     7   Atom        0.008353     -0.090963     -0.041418
     8   Atom        0.377705     -0.603664     -0.109760
     9   Atom        0.216988     -0.358075      0.331107
    10   Atom       -0.029867      0.067339     -0.108255
    11   Atom        0.014287     -0.007491      0.072699
    12   Atom        0.009773      0.048930      0.087247
    13   Atom       -0.005453      0.008443     -0.041868
    14   Atom        0.001312      0.008079      0.078945
    15   Atom       -0.003468      0.003648     -0.041971
    16   Atom        0.002189      0.010314      0.072929
    17   Atom       -0.004537      0.002824     -0.001118
    18   Atom       -0.015125     -0.000617     -0.005574
    19   Atom       -0.004518      0.000797     -0.000446
    20   Atom        0.006613      0.005705      0.004413
    21   Atom       -0.001606      0.005319     -0.001795
    22   Atom       -0.003876      0.014357     -0.002434
    23   Atom       -0.000797      0.002713     -0.002616
    24   Atom        0.001322     -0.006460     -0.002487
 --------------------------------------------------------


 ---------------------------------------------------------------------------------
              Anisotropic Spin Dipole Couplings in Principal Axis System
 ---------------------------------------------------------------------------------

       Atom             a.u.   MegaHertz   Gauss  10(-4) cm-1        Axes

              Baa    -0.2180   -29.256   -10.439    -9.759 -0.3712 -0.1122  0.9217
     1 C(13)  Bbb     0.0202     2.714     0.969     0.905  0.6605  0.6658  0.3471
              Bcc     0.1978    26.542     9.471     8.853 -0.6527  0.7376 -0.1731
 
              Baa    -0.1223   -16.410    -5.855    -5.474  0.9320 -0.0783  0.3540
     2 C(13)  Bbb    -0.0868   -11.652    -4.158    -3.887  0.0156  0.9842  0.1764
              Bcc     0.2091    28.062    10.013     9.360 -0.3622 -0.1589  0.9184
 
              Baa    -0.1862    -9.744    -3.477    -3.250  0.8101  0.4426  0.3845
     3 Cl(35) Bbb     0.0004     0.022     0.008     0.007 -0.3139  0.8813 -0.3532
              Bcc     0.1858     9.722     3.469     3.243 -0.4951  0.1654  0.8529
 
              Baa    -0.1114   -14.954    -5.336    -4.988 -0.3485 -0.1483  0.9255
     4 C(13)  Bbb     0.0461     6.183     2.206     2.062  0.4829  0.8178  0.3129
              Bcc     0.0654     8.771     3.130     2.926  0.8033 -0.5560  0.2134
 
              Baa    -0.1131   -15.173    -5.414    -5.061  0.5837  0.7428  0.3279
     5 C(13)  Bbb    -0.0970   -13.019    -4.645    -4.343  0.7360 -0.6546  0.1727
              Bcc     0.2101    28.192    10.059     9.404 -0.3430 -0.1405  0.9288
 
              Baa    -0.1083   -14.537    -5.187    -4.849 -0.3469 -0.1416  0.9272
     6 C(13)  Bbb     0.0487     6.538     2.333     2.181  0.6664  0.6584  0.3499
              Bcc     0.0596     7.999     2.854     2.668 -0.6600  0.7392 -0.1341
 
              Baa    -0.1056   -14.169    -5.056    -4.726  0.3028  0.9181  0.2556
     7 C(13)  Bbb    -0.0859   -11.530    -4.114    -3.846  0.8873 -0.3695  0.2761
              Bcc     0.1915    25.699     9.170     8.572 -0.3480 -0.1432  0.9265
 
              Baa    -0.9218   -35.553   -12.686   -11.859  0.8675 -0.4045  0.2893
     8 N(14)  Bbb    -0.1030    -3.971    -1.417    -1.325  0.3038  0.8916  0.3357
              Bcc     1.0248    39.525    14.103    13.184 -0.3938 -0.2034  0.8964
 
              Baa    -0.9219   -35.554   -12.687   -11.860  0.7835 -0.1968  0.5894
     9 N(14)  Bbb    -0.1030    -3.973    -1.418    -1.325 -0.6159 -0.1199  0.7787
              Bcc     1.0249    39.527    14.104    13.185  0.0826  0.9731  0.2151
 
              Baa    -0.2180   -29.256   -10.439    -9.759  0.0313  0.9549  0.2951
    10 C(13)  Bbb     0.0202     2.713     0.968     0.905  0.8845  0.1111 -0.4531
              Bcc     0.1978    26.543     9.471     8.854  0.4655 -0.2752  0.8412
 
              Baa    -0.1223   -16.408    -5.855    -5.473  0.9458 -0.1141  0.3039
    11 C(13)  Bbb    -0.0868   -11.651    -4.157    -3.886 -0.3226 -0.2250  0.9194
              Bcc     0.2091    28.059    10.012     9.359  0.0365  0.9677  0.2496
 
              Baa    -0.1861    -9.738    -3.475    -3.248  0.9769  0.0288 -0.2119
    12 Cl(35) Bbb     0.0001     0.007     0.003     0.002  0.1896 -0.5744  0.7963
              Bcc     0.1859     9.731     3.472     3.246  0.0988  0.8181  0.5666
 
              Baa    -0.1114   -14.952    -5.335    -4.987  0.0187  0.9664  0.2564
    13 C(13)  Bbb     0.0461     6.182     2.206     2.062  0.7505  0.1558 -0.6422
              Bcc     0.0653     8.769     3.129     2.925  0.6606 -0.2044  0.7224
 
              Baa    -0.1131   -15.170    -5.413    -5.060  0.8278  0.1387 -0.5435
    14 C(13)  Bbb    -0.0970   -13.017    -4.645    -4.342  0.5609 -0.2230  0.7973
              Bcc     0.2101    28.187    10.058     9.402  0.0106  0.9649  0.2624
 
              Baa    -0.1083   -14.536    -5.187    -4.849  0.0150  0.9649  0.2622
    15 C(13)  Bbb     0.0487     6.538     2.333     2.181  0.8890  0.1072 -0.4452
              Bcc     0.0596     7.998     2.854     2.668  0.4577 -0.2398  0.8562
 
              Baa    -0.1056   -14.167    -5.055    -4.726 -0.5929 -0.2004  0.7799
    16 C(13)  Bbb    -0.0859   -11.529    -4.114    -3.846  0.8051 -0.1679  0.5689
              Bcc     0.1915    25.696     9.169     8.571  0.0169  0.9652  0.2609
 
              Baa    -0.0047    -2.514    -0.897    -0.839 -0.3512 -0.1403  0.9257
    17 H(1)   Bbb    -0.0032    -1.714    -0.612    -0.572  0.4044  0.8690  0.2851
              Bcc     0.0079     4.228     1.509     1.410  0.8445 -0.4745  0.2484
 
              Baa    -0.0157    -8.354    -2.981    -2.787  0.5994  0.7275  0.3339
    18 H(1)   Bbb    -0.0013    -0.715    -0.255    -0.239 -0.3481 -0.1387  0.9271
              Bcc     0.0170     9.069     3.236     3.025  0.7208 -0.6720  0.1701
 
              Baa    -0.0041    -2.184    -0.779    -0.728 -0.3638 -0.1515  0.9191
    19 H(1)   Bbb    -0.0029    -1.539    -0.549    -0.513  0.7609  0.5208  0.3870
              Bcc     0.0070     3.723     1.328     1.242 -0.5373  0.8401 -0.0742
 
              Baa    -0.0094    -5.011    -1.788    -1.672 -0.3683 -0.1231  0.9215
    20 H(1)   Bbb    -0.0032    -1.691    -0.603    -0.564 -0.6629  0.7297 -0.1675
              Bcc     0.0126     6.702     2.391     2.235  0.6518  0.6726  0.3504
 
              Baa    -0.0047    -2.514    -0.897    -0.838  0.0197  0.9644  0.2637
    21 H(1)   Bbb    -0.0032    -1.714    -0.612    -0.572 -0.6826 -0.1797  0.7083
              Bcc     0.0079     4.228     1.509     1.410  0.7305 -0.1940  0.6548
 
              Baa    -0.0157    -8.353    -2.980    -2.786  0.8402  0.1314 -0.5260
    22 H(1)   Bbb    -0.0013    -0.715    -0.255    -0.239  0.0154  0.9640  0.2653
              Bcc     0.0170     9.068     3.236     3.025  0.5420 -0.2311  0.8080
 
              Baa    -0.0041    -2.184    -0.779    -0.728  0.0341  0.9657  0.2575
    23 H(1)   Bbb    -0.0029    -1.539    -0.549    -0.513  0.9531  0.0460 -0.2990
              Bcc     0.0070     3.722     1.328     1.242  0.3006 -0.2556  0.9189
 
              Baa    -0.0094    -5.010    -1.788    -1.671  0.0310  0.9583  0.2842
    24 H(1)   Bbb    -0.0032    -1.691    -0.603    -0.564  0.4745 -0.2643  0.8396
              Bcc     0.0126     6.701     2.391     2.235  0.8797  0.1089 -0.4629
 

 ---------------------------------------------------------------------------------

 No NMR shielding tensors so no spin-rotation constants.
 Leave Link  601 at Fri Mar  6 17:14:12 2026, MaxMem=  2415919104 cpu:               1.6 elap:               0.7
 (Enter /prod/precompiled/gaussian/16c2/g16/l716.exe)
 Dipole        =-6.55893070D-02 1.61048208D-01 2.33673951D-01
 Polarizability= 0.00000000D+00 0.00000000D+00 0.00000000D+00
                 0.00000000D+00 0.00000000D+00 0.00000000D+00
 -------------------------------------------------------------------
 Center     Atomic                   Forces (Hartrees/Bohr)
 Number     Number              X              Y              Z
 -------------------------------------------------------------------
      1        6           0.000001873   -0.000000128    0.000000112
      2        6           0.000003640    0.000000276    0.000000513
      3       17          -0.000001121   -0.000002123   -0.000000784
      4        6           0.000000738   -0.000002463   -0.000001043
      5        6           0.000003266    0.000006448   -0.000000130
      6        6          -0.000000446   -0.000003793   -0.000001681
      7        6           0.000001154    0.000001231   -0.000000794
      8        7          -0.000000436    0.000000541   -0.000000643
      9        7           0.000000199    0.000000031    0.000000876
     10        6           0.000000158    0.000000119   -0.000000218
     11        6          -0.000002607   -0.000000462    0.000000398
     12       17           0.000001104    0.000001479   -0.000000900
     13        6          -0.000000510    0.000000561    0.000000251
     14        6          -0.000003476   -0.000003085    0.000001769
     15        6           0.000000076   -0.000000301    0.000000927
     16        6          -0.000001322   -0.000001705    0.000000093
     17        1           0.000001612    0.000005882    0.000001094
     18        1           0.000000323    0.000002049   -0.000000258
     19        1          -0.000000006    0.000000151   -0.000000746
     20        1          -0.000000372   -0.000001854   -0.000000576
     21        1          -0.000000323   -0.000000817   -0.000000254
     22        1          -0.000000968   -0.000000946    0.000000362
     23        1          -0.000001814   -0.000001276    0.000000504
     24        1          -0.000000744    0.000000186    0.000001129
 -------------------------------------------------------------------
 Cartesian Forces:  Max     0.000006448 RMS     0.000001690
 Leave Link  716 at Fri Mar  6 17:14:12 2026, MaxMem=  2415919104 cpu:               0.1 elap:               0.2
 (Enter /prod/precompiled/gaussian/16c2/g16/l9999.exe)
 Unable to Open any file for archive entry.
 1\1\GINC-AMD21\FOpt\UwB97XD\def2SVP\C12H8Cl2N2(3)\SVELA\06-Mar-2026\0\
 \#p nosymm scf=(maxconventionalcycles=200,xqc) UwB97XD def2SVP opt=(Re
 calcFC=30,cartesian,skipdihedral)\\Title Card\\0,3\C,-0.6768963883,-0.
 9153049428,-0.0843481509\C,-0.4721685841,0.4576742701,0.2181865579\Cl,
 1.021599003,1.0216105143,0.9021710568\C,-1.4787519127,1.3896907139,-0.
 0205323125\C,-2.7055749107,0.9904041468,-0.545569115\C,-2.9326085601,-
 0.3589355874,-0.8369779772\C,-1.9358063553,-1.2908644894,-0.6112561154
 \N,0.2186659858,-1.9256480219,0.1057304798\N,1.449812775,-1.8331934352
 ,0.3863784484\C,2.07189783,-2.167968398,1.5525807066\C,1.4370771567,-2
 .4772105729,2.78546034\Cl,-0.2925110647,-2.4555151284,2.9443986883\C,2
 .1959173773,-2.7983345878,3.9079122583\C,3.5873670139,-2.8077320489,3.
 8448104738\C,4.232385476,-2.4918305753,2.6442335804\C,3.4869823332,-2.
 1799861245,1.5216373832\H,-1.2893940303,2.4370160466,0.2191318184\H,-3
 .4840614578,1.7344835468,-0.7229742241\H,-3.893069437,-0.6794770324,-1
 .2445970232\H,-2.0847574806,-2.3489784546,-0.8315042898\H,1.6786073034
 ,-3.0347835076,4.8388897417\H,4.1659160235,-3.0587263058,4.7355721484\
 H,5.3224846511,-2.4930925312,2.588764049\H,3.9636972529,-1.9323794946,
 0.572028477\\Version=ES64L-G16RevC.02\HF=-1491.0003374\S2=2.069995\S2-
 1=0.\S2A=2.003011\RMSD=8.094e-09\RMSF=1.690e-06\Dipole=-0.0655893,0.16
 10482,0.233674\Polar=0.,0.,0.,0.,0.,0.\Quadrupole=6.41019,-4.8076874,-
 1.6025026,-3.8616186,6.6275218,-2.9795016\PG=C01 [X(C12H8Cl2N2)]\\@
 The archive entry for this job was punched.


 TWO ROADS DIVERGED IN A WOOD, AND I--
 I TOOK THE ONE LESS TRAVELED BY,
 AND THAT HAS MADE ALL THE DIFFERENCE.

                       -- ROBERT FROST
 Job cpu time:       0 days  7 hours 10 minutes 46.8 seconds.
 Elapsed time:       0 days  0 hours 48 minutes 36.5 seconds.
 File lengths (MBytes):  RWF=    479 Int=      0 D2E=      0 Chk=     10 Scr=      1
 Normal termination of Gaussian 16 at Fri Mar  6 17:14:12 2026.
