 Entering Gaussian System, Link 0=g16
 Initial command:
 /prod/precompiled/gaussian/16c2/g16/l1.exe "/scratch/ucsscms/svela/2076943/Gau-1007556.inp" -scrdir="/scratch/ucsscms/svela/2076943/"
 Entering Link 1 = /prod/precompiled/gaussian/16c2/g16/l1.exe PID=   1007557.
  
 Copyright (c) 1988-2021, Gaussian, Inc.  All Rights Reserved.
  
 This is part of the Gaussian(R) 16 program.  It is based on
 the Gaussian(R) 09 system (copyright 2009, Gaussian, Inc.),
 the Gaussian(R) 03 system (copyright 2003, Gaussian, Inc.),
 the Gaussian(R) 98 system (copyright 1998, Gaussian, Inc.),
 the Gaussian(R) 94 system (copyright 1995, Gaussian, Inc.),
 the Gaussian 92(TM) system (copyright 1992, Gaussian, Inc.),
 the Gaussian 90(TM) system (copyright 1990, Gaussian, Inc.),
 the Gaussian 88(TM) system (copyright 1988, Gaussian, Inc.),
 the Gaussian 86(TM) system (copyright 1986, Carnegie Mellon
 University), and the Gaussian 82(TM) system (copyright 1983,
 Carnegie Mellon University). Gaussian is a federally registered
 trademark of Gaussian, Inc.
  
 This software contains proprietary and confidential information,
 including trade secrets, belonging to Gaussian, Inc.
  
 This software is provided under written license and may be
 used, copied, transmitted, or stored only in accord with that
 written license.
  
 The following legend is applicable only to US Government
 contracts under FAR:
  
                    RESTRICTED RIGHTS LEGEND
  
 Use, reproduction and disclosure by the US Government is
 subject to restrictions as set forth in subparagraphs (a)
 and (c) of the Commercial Computer Software - Restricted
 Rights clause in FAR 52.227-19.
  
 Gaussian, Inc.
 340 Quinnipiac St., Bldg. 40, Wallingford CT 06492
  
  
 ---------------------------------------------------------------
 Warning -- This program may not be used in any manner that
 competes with the business of Gaussian, Inc. or will provide
 assistance to any competitor of Gaussian, Inc.  The licensee
 of this program is prohibited from giving any competitor of
 Gaussian, Inc. access to this program.  By using this program,
 the user acknowledges that Gaussian, Inc. is engaged in the
 business of creating and licensing software in the field of
 computational chemistry and represents and warrants to the
 licensee that it is not a competitor of Gaussian, Inc. and that
 it will not use this program in any manner prohibited above.
 ---------------------------------------------------------------
  

 Cite this work as:
 Gaussian 16, Revision C.02,
 M. J. Frisch, G. W. Trucks, H. B. Schlegel, G. E. Scuseria, 
 M. A. Robb, J. R. Cheeseman, G. Scalmani, V. Barone, 
 G. A. Petersson, H. Nakatsuji, X. Li, M. Caricato, A. V. Marenich, 
 J. Bloino, B. G. Janesko, R. Gomperts, B. Mennucci, H. P. Hratchian, 
 J. V. Ortiz, A. F. Izmaylov, J. L. Sonnenberg, D. Williams-Young, 
 F. Ding, F. Lipparini, F. Egidi, J. Goings, B. Peng, A. Petrone, 
 T. Henderson, D. Ranasinghe, V. G. Zakrzewski, J. Gao, N. Rega, 
 G. Zheng, W. Liang, M. Hada, M. Ehara, K. Toyota, R. Fukuda, 
 J. Hasegawa, M. Ishida, T. Nakajima, Y. Honda, O. Kitao, H. Nakai, 
 T. Vreven, K. Throssell, J. A. Montgomery, Jr., J. E. Peralta, 
 F. Ogliaro, M. J. Bearpark, J. J. Heyd, E. N. Brothers, K. N. Kudin, 
 V. N. Staroverov, T. A. Keith, R. Kobayashi, J. Normand, 
 K. Raghavachari, A. P. Rendell, J. C. Burant, S. S. Iyengar, 
 J. Tomasi, M. Cossi, J. M. Millam, M. Klene, C. Adamo, R. Cammi, 
 J. W. Ochterski, R. L. Martin, K. Morokuma, O. Farkas, 
 J. B. Foresman, and D. J. Fox, Gaussian, Inc., Wallingford CT, 2019.
 
 ******************************************
 Gaussian 16:  ES64L-G16RevC.02  7-Dec-2021
                 6-Mar-2026 
 ******************************************
 %nprocs=12
 Will use up to   12 processors via shared memory.
 %mem=18gb
 %chk=test_tsrot_b_t_freq_r1.chk
 ----------------------------------------------------------------------
 #p nosymm scf=(maxconventionalcycles=200,xqc) UwB97XD def2SVP freq(hpm
 odes)
 ----------------------------------------------------------------------
 1/10=4,30=1,38=1/1,3;
 2/12=2,15=1,17=6,18=5,40=1/2;
 3/5=43,7=101,11=2,25=1,30=1,71=2,74=-58,116=2,140=1/1,2,3;
 4//1;
 5/5=2,8=3,13=1,38=5,85=200,98=1/2,8;
 8/6=4,10=90,11=11/1;
 11/6=1,8=1,9=11,15=111,16=1,31=1/1,2,10;
 10/6=1,31=1/2;
 6/7=2,8=2,9=2,10=2,28=1/1;
 7/8=11,10=1,25=1,30=1/1,2,3,16;
 1/10=4,30=1/3;
 99//99;
 Leave Link    1 at Fri Mar  6 17:31:42 2026, MaxMem=  2415919104 cpu:               0.1 elap:               0.4
 (Enter /prod/precompiled/gaussian/16c2/g16/l101.exe)
 ----------
 Title Card
 ----------
 Symbolic Z-matrix:
 Charge =  0 Multiplicity = 3
 C                    -0.6769   -0.91531  -0.08435 
 C                    -0.47217   0.45767   0.21819 
 Cl                    1.0216    1.02161   0.90217 
 C                    -1.47875   1.38969  -0.02053 
 C                    -2.70558   0.9904   -0.54557 
 C                    -2.93261  -0.35894  -0.83698 
 C                    -1.93581  -1.29086  -0.61126 
 N                     0.21867  -1.92565   0.10573 
 N                     1.44981  -1.83319   0.38638 
 C                     2.0719   -2.16797   1.55258 
 C                     1.43708  -2.47721   2.78546 
 Cl                   -0.29251  -2.45552   2.9444 
 C                     2.19592  -2.79834   3.90791 
 C                     3.58737  -2.80773   3.84481 
 C                     4.23238  -2.49183   2.64423 
 C                     3.48698  -2.17999   1.52164 
 H                    -1.28939   2.43702   0.21913 
 H                    -3.48406   1.73448  -0.72297 
 H                    -3.89307  -0.67948  -1.2446 
 H                    -2.08476  -2.34898  -0.8315 
 H                     1.67861  -3.03478   4.83889 
 H                     4.16592  -3.05873   4.73557 
 H                     5.32249  -2.49309   2.58876 
 H                     3.9637   -1.93238   0.57203 
 
 ITRead=  0  0  0  0  0  0  0  0  0  0  0  0  0  0  0  0  0  0  0  0
 ITRead=  0  0  0  0
 MicOpt= -1 -1 -1 -1 -1 -1 -1 -1 -1 -1 -1 -1 -1 -1 -1 -1 -1 -1 -1 -1
 MicOpt= -1 -1 -1 -1
 NAtoms=     24 NQM=       24 NQMF=       0 NMMI=      0 NMMIF=      0
                NMic=       0 NMicF=      0.
                    Isotopes and Nuclear Properties:
 (Nuclear quadrupole moments (NQMom) in fm**2, nuclear magnetic moments (NMagM)
  in nuclear magnetons)

  Atom         1           2           3           4           5           6           7           8           9          10
 IAtWgt=          12          12          35          12          12          12          12          14          14          12
 AtmWgt=  12.0000000  12.0000000  34.9688527  12.0000000  12.0000000  12.0000000  12.0000000  14.0030740  14.0030740  12.0000000
 NucSpn=           0           0           3           0           0           0           0           2           2           0
 AtZEff=  -0.0000000  -0.0000000  -0.0000000  -0.0000000  -0.0000000  -0.0000000  -0.0000000  -0.0000000  -0.0000000  -0.0000000
 NQMom=    0.0000000   0.0000000  -8.1650000   0.0000000   0.0000000   0.0000000   0.0000000   2.0440000   2.0440000   0.0000000
 NMagM=    0.0000000   0.0000000   0.8218740   0.0000000   0.0000000   0.0000000   0.0000000   0.4037610   0.4037610   0.0000000
 AtZNuc=   6.0000000   6.0000000  17.0000000   6.0000000   6.0000000   6.0000000   6.0000000   7.0000000   7.0000000   6.0000000

  Atom        11          12          13          14          15          16          17          18          19          20
 IAtWgt=          12          35          12          12          12          12           1           1           1           1
 AtmWgt=  12.0000000  34.9688527  12.0000000  12.0000000  12.0000000  12.0000000   1.0078250   1.0078250   1.0078250   1.0078250
 NucSpn=           0           3           0           0           0           0           1           1           1           1
 AtZEff=  -0.0000000  -0.0000000  -0.0000000  -0.0000000  -0.0000000  -0.0000000  -0.0000000  -0.0000000  -0.0000000  -0.0000000
 NQMom=    0.0000000  -8.1650000   0.0000000   0.0000000   0.0000000   0.0000000   0.0000000   0.0000000   0.0000000   0.0000000
 NMagM=    0.0000000   0.8218740   0.0000000   0.0000000   0.0000000   0.0000000   2.7928460   2.7928460   2.7928460   2.7928460
 AtZNuc=   6.0000000  17.0000000   6.0000000   6.0000000   6.0000000   6.0000000   1.0000000   1.0000000   1.0000000   1.0000000

  Atom        21          22          23          24
 IAtWgt=           1           1           1           1
 AtmWgt=   1.0078250   1.0078250   1.0078250   1.0078250
 NucSpn=           1           1           1           1
 AtZEff=  -0.0000000  -0.0000000  -0.0000000  -0.0000000
 NQMom=    0.0000000   0.0000000   0.0000000   0.0000000
 NMagM=    2.7928460   2.7928460   2.7928460   2.7928460
 AtZNuc=   1.0000000   1.0000000   1.0000000   1.0000000
 Leave Link  101 at Fri Mar  6 17:31:42 2026, MaxMem=  2415919104 cpu:               0.1 elap:               0.1
 (Enter /prod/precompiled/gaussian/16c2/g16/l103.exe)

 GradGradGradGradGradGradGradGradGradGradGradGradGradGradGradGradGradGrad
 Berny optimization.
 Initialization pass.
 Trust Radius=3.00D-01 FncErr=1.00D-07 GrdErr=1.00D-07 EigMax=2.50D+02 EigMin=1.00D-04
 Number of steps in this run=      2 maximum allowed number of steps=      2.
 GradGradGradGradGradGradGradGradGradGradGradGradGradGradGradGradGradGrad

 Leave Link  103 at Fri Mar  6 17:31:42 2026, MaxMem=  2415919104 cpu:               0.1 elap:               0.1
 (Enter /prod/precompiled/gaussian/16c2/g16/l202.exe)
                          Input orientation:                          
 ---------------------------------------------------------------------
 Center     Atomic      Atomic             Coordinates (Angstroms)
 Number     Number       Type             X           Y           Z
 ---------------------------------------------------------------------
      1          6           0       -0.676896   -0.915305   -0.084348
      2          6           0       -0.472169    0.457674    0.218187
      3         17           0        1.021599    1.021611    0.902171
      4          6           0       -1.478752    1.389691   -0.020532
      5          6           0       -2.705575    0.990404   -0.545569
      6          6           0       -2.932609   -0.358936   -0.836978
      7          6           0       -1.935806   -1.290864   -0.611256
      8          7           0        0.218666   -1.925648    0.105730
      9          7           0        1.449813   -1.833193    0.386378
     10          6           0        2.071898   -2.167968    1.552581
     11          6           0        1.437077   -2.477211    2.785460
     12         17           0       -0.292511   -2.455515    2.944399
     13          6           0        2.195917   -2.798335    3.907912
     14          6           0        3.587367   -2.807732    3.844810
     15          6           0        4.232385   -2.491831    2.644234
     16          6           0        3.486982   -2.179986    1.521637
     17          1           0       -1.289394    2.437016    0.219132
     18          1           0       -3.484061    1.734484   -0.722974
     19          1           0       -3.893069   -0.679477   -1.244597
     20          1           0       -2.084757   -2.348978   -0.831504
     21          1           0        1.678607   -3.034784    4.838890
     22          1           0        4.165916   -3.058726    4.735572
     23          1           0        5.322485   -2.493093    2.588764
     24          1           0        3.963697   -1.932379    0.572028
 ---------------------------------------------------------------------
                    Distance matrix (angstroms):
                    1          2          3          4          5
     1  C    0.000000
     2  C    1.420743   0.000000
     3  Cl   2.758577   1.737009   0.000000
     4  C    2.441322   1.392427   2.690468   0.000000
     5  C    2.821345   2.419758   3.998594   1.392907   0.000000
     6  C    2.442179   2.798927   4.535009   2.416191   1.398993
     7  C    1.415461   2.426437   4.047746   2.782666   2.408535
     8  N    1.363435   2.483973   3.156795   3.726747   4.180758
     9  N    2.363682   2.995058   2.932459   4.373677   5.109645
    10  C    3.435778   3.891899   3.420464   5.266758   6.099327
    11  C    3.891559   4.341620   3.995141   5.597194   6.346785
    12  Cl   3.419548   3.993893   4.241225   4.998359   5.465996
    13  C    5.266592   5.597709   5.000549   6.817289   7.629722
    14  C    6.099467   6.347842   5.468652   7.630517   8.561681
    15  C    5.833664   6.059547   5.068353   7.401640   8.392621
    16  C    4.638587   4.932657   4.088040   6.307091   7.257581
    17  H    3.421302   2.141414   2.794745   1.090956   2.164029
    18  H    3.912723   3.404045   4.842546   2.152573   1.091406
    19  H    3.427180   3.890425   5.626391   3.407157   2.165014
    20  H    2.143766   3.402879   4.900607   3.873314   3.408613
    21  H    5.854815   6.178511   5.690673   7.291013   8.025932
    22  H    7.160915   7.367745   6.421125   8.618075   9.565735
    23  H    6.754814   6.921320   5.804770   8.254772   9.295620
    24  H    4.795870   5.051184   4.182223   6.403712   7.366877
                    6          7          8          9         10
     6  C    0.000000
     7  C    1.383133   0.000000
     8  N    3.643325   2.357704   0.000000
     9  N    4.782850   3.570968   1.266110   0.000000
    10  C    5.833325   4.638232   2.363592   1.363486   0.000000
    11  C    6.058325   4.931677   2.994946   2.484052   1.420781
    12  Cl   5.066021   4.086504   2.932593   3.156968   2.758672
    13  C    7.400434   6.306067   4.373522   3.726845   2.441378
    14  C    8.392010   7.256918   5.109495   4.180863   2.821393
    15  C    8.246528   7.077225   4.782730   3.643408   2.442191
    16  C    7.077460   5.894608   3.570906   2.357782   1.415473
    17  H    3.410700   3.873562   4.617352   5.076013   5.855104
    18  H    2.167834   3.400339   5.271954   6.188869   7.160724
    19  H    1.091505   2.146111   4.503631   5.704168   6.754305
    20  H    2.163134   1.091009   2.522573   3.773918   4.795248
    21  H    7.787102   6.768259   5.075866   4.617470   3.421385
    22  H    9.419726   8.303308   6.188706   5.272062   3.912773
    23  H    9.188956   8.022984   5.704070   4.503727   3.427200
    24  H    7.212493   6.051102   3.773955   2.522680   2.143803
                   11         12         13         14         15
    11  C    0.000000
    12  Cl   1.737011   0.000000
    13  C    1.392429   2.690382   0.000000
    14  C    2.419755   3.998531   1.392912   0.000000
    15  C    2.798911   4.534986   2.416201   1.399008   0.000000
    16  C    2.426459   4.047806   2.782717   2.408584   1.383147
    17  H    6.178132   5.688384   7.291323   8.027186   7.788754
    18  H    7.366484   6.418077   8.617059   9.565640   9.420370
    19  H    6.919802   5.802242   8.253100   9.294539   9.188614
    20  H    5.049969   4.181021   6.402199   7.365552   7.211619
    21  H    2.141448   2.794630   1.090980   2.164050   3.410732
    22  H    3.404065   4.842493   2.152608   1.091409   2.167829
    23  H    3.890416   5.626373   3.407162   2.165014   1.091511
    24  H    3.402930   4.900727   3.873377   3.408661   2.163150
                   16         17         18         19         20
    16  C    0.000000
    17  H    6.769564   0.000000
    18  H    8.304023   2.489514   0.000000
    19  H    8.023013   4.316730   2.503315   0.000000
    20  H    6.050629   4.964089   4.317927   2.495570   0.000000
    21  H    3.873637   7.751889   8.962890   8.579036   6.840074
    22  H    3.400370   8.964475  10.549537  10.313607   8.400416
    23  H    2.146128   8.581263  10.314808  10.144471   8.160039
    24  H    1.091020   6.841865   8.401905   8.160800   6.223122
                   21         22         23         24
    21  H    0.000000
    22  H    2.489569   0.000000
    23  H    4.316751   2.503273   0.000000
    24  H    4.964176   4.317945   2.495582   0.000000
 Symmetry turned off by external request.
 Stoichiometry    C12H8Cl2N2(3)
 Framework group  C1[X(C12H8Cl2N2)]
 Deg. of freedom    66
 Full point group                 C1      NOp   1
 Rotational constants (GHZ):           0.9171470           0.2817888           0.2523651
 Leave Link  202 at Fri Mar  6 17:31:42 2026, MaxMem=  2415919104 cpu:               0.0 elap:               0.0
 (Enter /prod/precompiled/gaussian/16c2/g16/l301.exe)
 Standard basis: def2SVP (5D, 7F)
 Ernie: Thresh=  0.10000D-02 Tol=  0.10000D-05 Strict=F.
   272 basis functions,   480 primitive gaussians,   288 cartesian basis functions
    65 alpha electrons       63 beta electrons
       nuclear repulsion energy      1235.6736167582 Hartrees.
 IExCor= 4639 DFT=T Ex+Corr=wB97XD ExCW=0 ScaHFX=  1.000000
 ScaDFX=  1.000000  1.000000  1.000000  1.000000 ScalE2=  1.000000  1.000000
 IRadAn=      5 IRanWt=     -1 IRanGd=            0 ICorTp=0 IEmpDi=121
 HFx  wShort=  0.000000 wLong=  0.200000 cFull=  0.222036 cShort=  0.000000 cLong=  0.777964
 DFx  wShort=  0.000000 wLong=  0.200000 cFull=  0.000000 cShort=  0.000000 cLong=  1.000000
 NAtoms=   24 NActive=   24 NUniq=   24 SFac= 1.00D+00 NAtFMM=   60 NAOKFM=F Big=F
 Integral buffers will be    131072 words long.
 Raffenetti 2 integral format.
 Two-electron integral symmetry is turned off.
 R6Disp:  Grimme-D2 Dispersion energy=       -0.0146423381 Hartrees.
 Nuclear repulsion after empirical dispersion term =     1235.6589744201 Hartrees.
 Leave Link  301 at Fri Mar  6 17:31:42 2026, MaxMem=  2415919104 cpu:               0.1 elap:               0.1
 (Enter /prod/precompiled/gaussian/16c2/g16/l302.exe)
 NPDir=0 NMtPBC=     1 NCelOv=     1 NCel=       1 NClECP=     1 NCelD=      1
         NCelK=      1 NCelE2=     1 NClLst=     1 CellRange=     0.0.
 One-electron integrals computed using PRISM.
   1 Symmetry operations used in ECPInt.
 ECPInt:  NShTT=    7750 NPrTT=   30142 LenC2=    7120 LenP2D=   19389.
 LDataN:  DoStor=T MaxTD1= 4 Len=   56
 NBasis=   272 RedAO= T EigKep=  2.34D-04  NBF=   272
 NBsUse=   272 1.00D-06 EigRej= -1.00D+00 NBFU=   272
 Precomputing XC quadrature grid using
 IXCGrd= 4 IRadAn=           5 IRanWt=          -1 IRanGd=           0 AccXCQ= 0.00D+00.
 Generated NRdTot=       0 NPtTot=           0 NUsed=           0 NTot=          32
 NSgBfM=   285   285   285   285   285 MxSgAt=    24 MxSgA2=    24.
 Leave Link  302 at Fri Mar  6 17:31:42 2026, MaxMem=  2415919104 cpu:               1.3 elap:               0.3
 (Enter /prod/precompiled/gaussian/16c2/g16/l303.exe)
 DipDrv:  MaxL=1.
 Leave Link  303 at Fri Mar  6 17:31:43 2026, MaxMem=  2415919104 cpu:               0.1 elap:               0.1
 (Enter /prod/precompiled/gaussian/16c2/g16/l401.exe)
 ExpMin= 1.22D-01 ExpMax= 1.04D+04 ExpMxC= 1.57D+03 IAcc=3 IRadAn=         5 AccDes= 0.00D+00
 Harris functional with IExCor= 4639 and IRadAn=       5 diagonalized for initial guess.
 HarFok:  IExCor= 4639 AccDes= 0.00D+00 IRadAn=         5 IDoV= 1 UseB2=F ITyADJ=14
 ICtDFT=  3500011 ScaDFX=  1.000000  1.000000  1.000000  1.000000
 FoFCou: FMM=F IPFlag=           0 FMFlag=      100000 FMFlg1=           0
         NFxFlg=           0 DoJE=T BraDBF=F KetDBF=T FulRan=T
         wScrn=  0.000000 ICntrl=       500 IOpCl=  0 I1Cent=   200000004 NGrid=           0
         NMat0=    1 NMatS0=      1 NMatT0=    0 NMatD0=    1 NMtDS0=    0 NMtDT0=    0
 Symmetry not used in FoFCou.
 Harris En= -1450.76631323315    
 JPrj=0 DoOrth=F DoCkMO=F.
 Initial guess <Sx>= 0.0000 <Sy>= 0.0000 <Sz>= 1.0000 <S**2>= 2.0000 S= 1.0000
 Leave Link  401 at Fri Mar  6 17:31:43 2026, MaxMem=  2415919104 cpu:               5.7 elap:               0.8
 (Enter /prod/precompiled/gaussian/16c2/g16/l502.exe)
 Two-electron integral symmetry not used.
 UHF open shell SCF:
 Using DIIS extrapolation, IDIIS=  1040.
 NGot=  2415919104 LenX=  2415746906 LenY=  2415663521
 Requested convergence on RMS density matrix=1.00D-08 within 200 cycles.
 Requested convergence on MAX density matrix=1.00D-06.
 Requested convergence on             energy=1.00D-06.
 No special actions if energy rises.
 Fock matrices will be formed incrementally for  20 cycles.
 Integral accuracy reduced to 1.0D-05 until final iterations.

 Cycle   1  Pass 0  IDiag  1:
 FoFJK:  IHMeth= 1 ICntrl=       0 DoSepK=T KAlg= 0 I1Cent=           0 FoldK=F
 IRaf=         1 NMat=       1 IRICut=       1 DoRegI=T DoRafI=F ISym2E= 0 IDoP0=0 IntGTp=1.
 FoFCou: FMM=F IPFlag=           0 FMFlag=      100000 FMFlg1=           0
         NFxFlg=           0 DoJE=T BraDBF=F KetDBF=F FulRan=T
         wScrn=  0.000000 ICntrl=       500 IOpCl=  0 I1Cent=           0 NGrid=           0
         NMat0=    1 NMatS0=      1 NMatT0=    0 NMatD0=    1 NMtDS0=    0 NMtDT0=    0
 Symmetry not used in FoFCou.
 E= -1490.44067638497    
 DIIS: error= 5.02D-02 at cycle   1 NSaved=   1.
 NSaved= 1 IEnMin= 1 EnMin= -1490.44067638497     IErMin= 1 ErrMin= 5.02D-02
 ErrMax= 5.02D-02  0.00D+00 EMaxC= 1.00D-01 BMatC= 3.26D+00 BMatP= 3.26D+00
 IDIUse=3 WtCom= 4.98D-01 WtEn= 5.02D-01
 Coeff-Com:  0.100D+01
 Coeff-En:   0.100D+01
 Coeff:      0.100D+01
 Gap=     0.360 Goal=   None    Shift=    0.000
 Gap=     0.319 Goal=   None    Shift=    0.000
 GapD=    0.319 DampG=1.000 DampE=0.500 DampFc=0.5000 IDamp=-1.
 Damping current iteration by 5.00D-01
 RMSDP=7.61D-03 MaxDP=2.86D-01              OVMax= 5.24D-01

 Cycle   2  Pass 0  IDiag  1:
 RMSU=  3.74D-03    CP:  9.72D-01
 E= -1490.64556829074     Delta-E=       -0.204891905765 Rises=F Damp=T
 DIIS: error= 1.76D-02 at cycle   2 NSaved=   2.
 NSaved= 2 IEnMin= 2 EnMin= -1490.64556829074     IErMin= 2 ErrMin= 1.76D-02
 ErrMax= 1.76D-02  0.00D+00 EMaxC= 1.00D-01 BMatC= 4.69D-01 BMatP= 3.26D+00
 IDIUse=3 WtCom= 8.24D-01 WtEn= 1.76D-01
 Coeff-Com: -0.488D-01 0.105D+01
 Coeff-En:   0.169D+00 0.831D+00
 Coeff:     -0.104D-01 0.101D+01
 Gap=     0.428 Goal=   None    Shift=    0.000
 Gap=     0.305 Goal=   None    Shift=    0.000
 RMSDP=2.91D-03 MaxDP=7.81D-02 DE=-2.05D-01 OVMax= 3.64D-01

 Cycle   3  Pass 0  IDiag  1:
 RMSU=  2.87D-03    CP:  9.56D-01  1.05D+00
 E= -1490.89474863102     Delta-E=       -0.249180340281 Rises=F Damp=F
 DIIS: error= 1.84D-02 at cycle   3 NSaved=   3.
 NSaved= 3 IEnMin= 3 EnMin= -1490.89474863102     IErMin= 2 ErrMin= 1.76D-02
 ErrMax= 1.84D-02  0.00D+00 EMaxC= 1.00D-01 BMatC= 3.46D-01 BMatP= 4.69D-01
 IDIUse=3 WtCom= 8.16D-01 WtEn= 1.84D-01
 Coeff-Com: -0.152D+00 0.546D+00 0.606D+00
 Coeff-En:   0.000D+00 0.000D+00 0.100D+01
 Coeff:     -0.124D+00 0.446D+00 0.678D+00
 Gap=     0.313 Goal=   None    Shift=    0.000
 Gap=     0.292 Goal=   None    Shift=    0.000
 RMSDP=2.01D-03 MaxDP=8.35D-02 DE=-2.49D-01 OVMax= 1.77D-01

 Cycle   4  Pass 0  IDiag  1:
 RMSU=  1.45D-03    CP:  9.46D-01  1.26D+00  6.07D-01
 E= -1490.98140714862     Delta-E=       -0.086658517602 Rises=F Damp=F
 DIIS: error= 5.04D-03 at cycle   4 NSaved=   4.
 NSaved= 4 IEnMin= 4 EnMin= -1490.98140714862     IErMin= 4 ErrMin= 5.04D-03
 ErrMax= 5.04D-03  0.00D+00 EMaxC= 1.00D-01 BMatC= 4.87D-02 BMatP= 3.46D-01
 IDIUse=3 WtCom= 9.50D-01 WtEn= 5.04D-02
 Coeff-Com: -0.282D-01 0.518D-01 0.296D+00 0.680D+00
 Coeff-En:   0.000D+00 0.000D+00 0.426D-01 0.957D+00
 Coeff:     -0.268D-01 0.492D-01 0.283D+00 0.694D+00
 Gap=     0.300 Goal=   None    Shift=    0.000
 Gap=     0.281 Goal=   None    Shift=    0.000
 RMSDP=5.96D-04 MaxDP=1.89D-02 DE=-8.67D-02 OVMax= 4.99D-02

 Cycle   5  Pass 0  IDiag  1:
 RMSU=  3.12D-04    CP:  9.46D-01  1.25D+00  7.64D-01  8.41D-01
 E= -1490.99692513838     Delta-E=       -0.015517989764 Rises=F Damp=F
 DIIS: error= 1.83D-03 at cycle   5 NSaved=   5.
 NSaved= 5 IEnMin= 5 EnMin= -1490.99692513838     IErMin= 5 ErrMin= 1.83D-03
 ErrMax= 1.83D-03  0.00D+00 EMaxC= 1.00D-01 BMatC= 2.02D-03 BMatP= 4.87D-02
 IDIUse=3 WtCom= 9.82D-01 WtEn= 1.83D-02
 Coeff-Com:  0.131D-01-0.422D-01-0.529D-01 0.294D-01 0.105D+01
 Coeff-En:   0.000D+00 0.000D+00 0.000D+00 0.000D+00 0.100D+01
 Coeff:      0.128D-01-0.414D-01-0.519D-01 0.289D-01 0.105D+01
 Gap=     0.303 Goal=   None    Shift=    0.000
 Gap=     0.284 Goal=   None    Shift=    0.000
 RMSDP=2.71D-04 MaxDP=1.28D-02 DE=-1.55D-02 OVMax= 3.05D-02

 Cycle   6  Pass 0  IDiag  1:
 RMSU=  1.54D-04    CP:  9.44D-01  1.26D+00  7.67D-01  9.59D-01  1.42D+00
 E= -1490.99934490040     Delta-E=       -0.002419762019 Rises=F Damp=F
 DIIS: error= 8.60D-04 at cycle   6 NSaved=   6.
 NSaved= 6 IEnMin= 6 EnMin= -1490.99934490040     IErMin= 6 ErrMin= 8.60D-04
 ErrMax= 8.60D-04  0.00D+00 EMaxC= 1.00D-01 BMatC= 7.46D-04 BMatP= 2.02D-03
 IDIUse=3 WtCom= 9.91D-01 WtEn= 8.60D-03
 Coeff-Com:  0.110D-01-0.203D-01-0.954D-01-0.193D+00 0.346D+00 0.952D+00
 Coeff-En:   0.000D+00 0.000D+00 0.000D+00 0.000D+00 0.000D+00 0.100D+01
 Coeff:      0.109D-01-0.201D-01-0.946D-01-0.191D+00 0.343D+00 0.952D+00
 Gap=     0.306 Goal=   None    Shift=    0.000
 Gap=     0.288 Goal=   None    Shift=    0.000
 RMSDP=1.70D-04 MaxDP=6.46D-03 DE=-2.42D-03 OVMax= 1.85D-02

 Cycle   7  Pass 0  IDiag  1:
 RMSU=  7.42D-05    CP:  9.44D-01  1.26D+00  7.71D-01  9.97D-01  1.86D+00
                    CP:  1.28D+00
 E= -1491.00019898484     Delta-E=       -0.000854084436 Rises=F Damp=F
 DIIS: error= 4.55D-04 at cycle   7 NSaved=   7.
 NSaved= 7 IEnMin= 7 EnMin= -1491.00019898484     IErMin= 7 ErrMin= 4.55D-04
 ErrMax= 4.55D-04  0.00D+00 EMaxC= 1.00D-01 BMatC= 1.64D-04 BMatP= 7.46D-04
 IDIUse=3 WtCom= 9.95D-01 WtEn= 4.55D-03
 Coeff-Com: -0.181D-02 0.850D-02-0.957D-02-0.567D-01-0.164D+00 0.284D+00
 Coeff-Com:  0.939D+00
 Coeff-En:   0.000D+00 0.000D+00 0.000D+00 0.000D+00 0.000D+00 0.000D+00
 Coeff-En:   0.100D+01
 Coeff:     -0.181D-02 0.846D-02-0.953D-02-0.565D-01-0.163D+00 0.283D+00
 Coeff:      0.939D+00
 Gap=     0.307 Goal=   None    Shift=    0.000
 Gap=     0.289 Goal=   None    Shift=    0.000
 RMSDP=8.02D-05 MaxDP=3.10D-03 DE=-8.54D-04 OVMax= 7.73D-03

 Cycle   8  Pass 0  IDiag  1:
 RMSU=  3.99D-05    CP:  9.44D-01  1.26D+00  7.70D-01  1.01D+00  2.00D+00
                    CP:  1.60D+00  1.04D+00
 E= -1491.00036590926     Delta-E=       -0.000166924417 Rises=F Damp=F
 DIIS: error= 2.36D-04 at cycle   8 NSaved=   8.
 NSaved= 8 IEnMin= 8 EnMin= -1491.00036590926     IErMin= 8 ErrMin= 2.36D-04
 ErrMax= 2.36D-04  0.00D+00 EMaxC= 1.00D-01 BMatC= 3.38D-05 BMatP= 1.64D-04
 IDIUse=3 WtCom= 9.98D-01 WtEn= 2.36D-03
 Coeff-Com: -0.376D-02 0.812D-02 0.199D-01 0.307D-01-0.138D+00-0.138D+00
 Coeff-Com:  0.329D+00 0.891D+00
 Coeff-En:   0.000D+00 0.000D+00 0.000D+00 0.000D+00 0.000D+00 0.000D+00
 Coeff-En:   0.000D+00 0.100D+01
 Coeff:     -0.376D-02 0.810D-02 0.199D-01 0.306D-01-0.137D+00-0.137D+00
 Coeff:      0.329D+00 0.891D+00
 Gap=     0.307 Goal=   None    Shift=    0.000
 Gap=     0.289 Goal=   None    Shift=    0.000
 RMSDP=3.46D-05 MaxDP=1.33D-03 DE=-1.67D-04 OVMax= 3.17D-03

 Cycle   9  Pass 0  IDiag  1:
 RMSU=  1.60D-05    CP:  9.44D-01  1.26D+00  7.67D-01  1.01D+00  2.06D+00
                    CP:  1.69D+00  1.28D+00  1.12D+00
 E= -1491.00039787697     Delta-E=       -0.000031967712 Rises=F Damp=F
 DIIS: error= 1.13D-04 at cycle   9 NSaved=   9.
 NSaved= 9 IEnMin= 9 EnMin= -1491.00039787697     IErMin= 9 ErrMin= 1.13D-04
 ErrMax= 1.13D-04  0.00D+00 EMaxC= 1.00D-01 BMatC= 4.67D-06 BMatP= 3.38D-05
 IDIUse=3 WtCom= 9.99D-01 WtEn= 1.13D-03
 Coeff-Com: -0.817D-03 0.132D-02 0.582D-02 0.141D-01-0.154D-01-0.668D-01
 Coeff-Com: -0.159D-01 0.192D+00 0.886D+00
 Coeff-En:   0.000D+00 0.000D+00 0.000D+00 0.000D+00 0.000D+00 0.000D+00
 Coeff-En:   0.000D+00 0.000D+00 0.100D+01
 Coeff:     -0.816D-03 0.132D-02 0.582D-02 0.140D-01-0.154D-01-0.667D-01
 Coeff:     -0.159D-01 0.191D+00 0.886D+00
 Gap=     0.307 Goal=   None    Shift=    0.000
 Gap=     0.289 Goal=   None    Shift=    0.000
 RMSDP=1.07D-05 MaxDP=4.54D-04 DE=-3.20D-05 OVMax= 1.50D-03

 Cycle  10  Pass 0  IDiag  1:
 RMSU=  6.36D-06    CP:  9.44D-01  1.26D+00  7.67D-01  1.01D+00  2.06D+00
                    CP:  1.71D+00  1.32D+00  1.26D+00  1.26D+00
 E= -1491.00040321734     Delta-E=       -0.000005340366 Rises=F Damp=F
 DIIS: error= 7.77D-05 at cycle  10 NSaved=  10.
 NSaved=10 IEnMin=10 EnMin= -1491.00040321734     IErMin=10 ErrMin= 7.77D-05
 ErrMax= 7.77D-05  0.00D+00 EMaxC= 1.00D-01 BMatC= 1.96D-06 BMatP= 4.67D-06
 IDIUse=1 WtCom= 1.00D+00 WtEn= 0.00D+00
 Coeff-Com:  0.936D-03-0.208D-02-0.477D-02-0.547D-02 0.402D-01 0.204D-01
 Coeff-Com: -0.112D+00-0.234D+00 0.310D+00 0.986D+00
 Coeff:      0.936D-03-0.208D-02-0.477D-02-0.547D-02 0.402D-01 0.204D-01
 Coeff:     -0.112D+00-0.234D+00 0.310D+00 0.986D+00
 Gap=     0.308 Goal=   None    Shift=    0.000
 Gap=     0.290 Goal=   None    Shift=    0.000
 RMSDP=8.77D-06 MaxDP=4.42D-04 DE=-5.34D-06 OVMax= 1.19D-03

 Initial convergence to 1.0D-05 achieved.  Increase integral accuracy.
 Cycle  11  Pass 1  IDiag  1:
 E= -1491.00033452031     Delta-E=        0.000068697022 Rises=F Damp=F
 DIIS: error= 7.66D-05 at cycle   1 NSaved=   1.
 NSaved= 1 IEnMin= 1 EnMin= -1491.00033452031     IErMin= 1 ErrMin= 7.66D-05
 ErrMax= 7.66D-05  0.00D+00 EMaxC= 1.00D-01 BMatC= 5.08D-06 BMatP= 5.08D-06
 IDIUse=1 WtCom= 1.00D+00 WtEn= 0.00D+00
 Coeff-Com:  0.100D+01
 Coeff:      0.100D+01
 Gap=     0.308 Goal=   None    Shift=    0.000
 Gap=     0.289 Goal=   None    Shift=    0.000
 RMSDP=8.77D-06 MaxDP=4.42D-04 DE= 6.87D-05 OVMax= 4.06D-04

 Cycle  12  Pass 1  IDiag  1:
 RMSU=  8.26D-05    CP:  1.00D+00
 E= -1491.00033633894     Delta-E=       -0.000001818626 Rises=F Damp=F
 DIIS: error= 3.31D-05 at cycle   2 NSaved=   2.
 NSaved= 2 IEnMin= 2 EnMin= -1491.00033633894     IErMin= 2 ErrMin= 3.31D-05
 ErrMax= 3.31D-05  0.00D+00 EMaxC= 1.00D-01 BMatC= 3.52D-07 BMatP= 5.08D-06
 IDIUse=1 WtCom= 1.00D+00 WtEn= 0.00D+00
 Coeff-Com: -0.249D-01 0.102D+01
 Coeff:     -0.249D-01 0.102D+01
 Gap=     0.308 Goal=   None    Shift=    0.000
 Gap=     0.289 Goal=   None    Shift=    0.000
 RMSDP=5.75D-06 MaxDP=1.24D-04 DE=-1.82D-06 OVMax= 3.40D-04

 Cycle  13  Pass 1  IDiag  1:
 RMSU=  3.04D-06    CP:  1.00D+00  1.06D+00
 E= -1491.00033677049     Delta-E=       -0.000000431552 Rises=F Damp=F
 DIIS: error= 2.84D-05 at cycle   3 NSaved=   3.
 NSaved= 3 IEnMin= 3 EnMin= -1491.00033677049     IErMin= 3 ErrMin= 2.84D-05
 ErrMax= 2.84D-05  0.00D+00 EMaxC= 1.00D-01 BMatC= 2.55D-07 BMatP= 3.52D-07
 IDIUse=1 WtCom= 1.00D+00 WtEn= 0.00D+00
 Coeff-Com: -0.458D-01 0.419D+00 0.626D+00
 Coeff:     -0.458D-01 0.419D+00 0.626D+00
 Gap=     0.308 Goal=   None    Shift=    0.000
 Gap=     0.289 Goal=   None    Shift=    0.000
 RMSDP=1.62D-06 MaxDP=6.36D-05 DE=-4.32D-07 OVMax= 1.76D-04

 Cycle  14  Pass 1  IDiag  1:
 RMSU=  1.46D-06    CP:  1.00D+00  1.06D+00  1.20D+00
 E= -1491.00033697034     Delta-E=       -0.000000199846 Rises=F Damp=F
 DIIS: error= 1.89D-05 at cycle   4 NSaved=   4.
 NSaved= 4 IEnMin= 4 EnMin= -1491.00033697034     IErMin= 4 ErrMin= 1.89D-05
 ErrMax= 1.89D-05  0.00D+00 EMaxC= 1.00D-01 BMatC= 1.11D-07 BMatP= 2.55D-07
 IDIUse=1 WtCom= 1.00D+00 WtEn= 0.00D+00
 Coeff-Com:  0.265D-01-0.785D+00-0.156D+00 0.191D+01
 Coeff:      0.265D-01-0.785D+00-0.156D+00 0.191D+01
 Gap=     0.308 Goal=   None    Shift=    0.000
 Gap=     0.289 Goal=   None    Shift=    0.000
 RMSDP=3.85D-06 MaxDP=1.74D-04 DE=-2.00D-07 OVMax= 4.42D-04

 Cycle  15  Pass 1  IDiag  1:
 RMSU=  1.53D-06    CP:  1.00D+00  1.07D+00  2.19D+00  2.27D+00
 E= -1491.00033732602     Delta-E=       -0.000000355683 Rises=F Damp=F
 DIIS: error= 8.35D-06 at cycle   5 NSaved=   5.
 NSaved= 5 IEnMin= 5 EnMin= -1491.00033732602     IErMin= 5 ErrMin= 8.35D-06
 ErrMax= 8.35D-06  0.00D+00 EMaxC= 1.00D-01 BMatC= 3.37D-08 BMatP= 1.11D-07
 IDIUse=1 WtCom= 1.00D+00 WtEn= 0.00D+00
 Coeff-Com:  0.287D-01-0.481D+00-0.328D+00 0.752D+00 0.103D+01
 Coeff:      0.287D-01-0.481D+00-0.328D+00 0.752D+00 0.103D+01
 Gap=     0.308 Goal=   None    Shift=    0.000
 Gap=     0.290 Goal=   None    Shift=    0.000
 RMSDP=2.38D-06 MaxDP=9.58D-05 DE=-3.56D-07 OVMax= 2.70D-04

 Cycle  16  Pass 1  IDiag  1:
 RMSU=  7.41D-07    CP:  1.00D+00  1.07D+00  2.73D+00  3.00D+00  1.50D+00
 E= -1491.00033742021     Delta-E=       -0.000000094191 Rises=F Damp=F
 DIIS: error= 2.50D-06 at cycle   6 NSaved=   6.
 NSaved= 6 IEnMin= 6 EnMin= -1491.00033742021     IErMin= 6 ErrMin= 2.50D-06
 ErrMax= 2.50D-06  0.00D+00 EMaxC= 1.00D-01 BMatC= 5.94D-09 BMatP= 3.37D-08
 IDIUse=1 WtCom= 1.00D+00 WtEn= 0.00D+00
 Coeff-Com: -0.213D-03 0.770D-01-0.207D-01-0.262D+00 0.164D+00 0.104D+01
 Coeff:     -0.213D-03 0.770D-01-0.207D-01-0.262D+00 0.164D+00 0.104D+01
 Gap=     0.308 Goal=   None    Shift=    0.000
 Gap=     0.290 Goal=   None    Shift=    0.000
 RMSDP=7.72D-07 MaxDP=3.11D-05 DE=-9.42D-08 OVMax= 9.61D-05

 Cycle  17  Pass 1  IDiag  1:
 RMSU=  3.78D-07    CP:  1.00D+00  1.07D+00  2.87D+00  3.00D+00  1.77D+00
                    CP:  1.40D+00
 E= -1491.00033743219     Delta-E=       -0.000000011980 Rises=F Damp=F
 DIIS: error= 1.72D-06 at cycle   7 NSaved=   7.
 NSaved= 7 IEnMin= 7 EnMin= -1491.00033743219     IErMin= 7 ErrMin= 1.72D-06
 ErrMax= 1.72D-06  0.00D+00 EMaxC= 1.00D-01 BMatC= 2.45D-09 BMatP= 5.94D-09
 IDIUse=1 WtCom= 1.00D+00 WtEn= 0.00D+00
 Coeff-Com: -0.886D-02 0.184D+00 0.908D-01-0.351D+00-0.238D+00 0.479D+00
 Coeff-Com:  0.844D+00
 Coeff:     -0.886D-02 0.184D+00 0.908D-01-0.351D+00-0.238D+00 0.479D+00
 Coeff:      0.844D+00
 Gap=     0.308 Goal=   None    Shift=    0.000
 Gap=     0.290 Goal=   None    Shift=    0.000
 RMSDP=3.50D-07 MaxDP=1.46D-05 DE=-1.20D-08 OVMax= 4.14D-05

 Cycle  18  Pass 1  IDiag  1:
 RMSU=  1.65D-07    CP:  1.00D+00  1.07D+00  2.92D+00  3.00D+00  1.87D+00
                    CP:  1.65D+00  1.34D+00
 E= -1491.00033743521     Delta-E=       -0.000000003023 Rises=F Damp=F
 DIIS: error= 6.75D-07 at cycle   8 NSaved=   8.
 NSaved= 8 IEnMin= 8 EnMin= -1491.00033743521     IErMin= 8 ErrMin= 6.75D-07
 ErrMax= 6.75D-07  0.00D+00 EMaxC= 1.00D-01 BMatC= 3.25D-10 BMatP= 2.45D-09
 IDIUse=1 WtCom= 1.00D+00 WtEn= 0.00D+00
 Coeff-Com:  0.144D-03-0.223D-01-0.315D-03 0.774D-01-0.305D-01-0.283D+00
 Coeff-Com: -0.102D+00 0.136D+01
 Coeff:      0.144D-03-0.223D-01-0.315D-03 0.774D-01-0.305D-01-0.283D+00
 Coeff:     -0.102D+00 0.136D+01
 Gap=     0.308 Goal=   None    Shift=    0.000
 Gap=     0.290 Goal=   None    Shift=    0.000
 RMSDP=2.03D-07 MaxDP=7.73D-06 DE=-3.02D-09 OVMax= 3.07D-05

 Cycle  19  Pass 1  IDiag  1:
 RMSU=  9.23D-08    CP:  1.00D+00  1.07D+00  2.94D+00  3.00D+00  1.89D+00
                    CP:  1.74D+00  1.63D+00  1.57D+00
 E= -1491.00033743597     Delta-E=       -0.000000000752 Rises=F Damp=F
 DIIS: error= 2.14D-07 at cycle   9 NSaved=   9.
 NSaved= 9 IEnMin= 9 EnMin= -1491.00033743597     IErMin= 9 ErrMin= 2.14D-07
 ErrMax= 2.14D-07  0.00D+00 EMaxC= 1.00D-01 BMatC= 7.18D-11 BMatP= 3.25D-10
 IDIUse=1 WtCom= 1.00D+00 WtEn= 0.00D+00
 Coeff-Com:  0.138D-02-0.346D-01-0.146D-01 0.783D-01 0.264D-01-0.160D+00
 Coeff-Com: -0.174D+00 0.453D+00 0.824D+00
 Coeff:      0.138D-02-0.346D-01-0.146D-01 0.783D-01 0.264D-01-0.160D+00
 Coeff:     -0.174D+00 0.453D+00 0.824D+00
 Gap=     0.308 Goal=   None    Shift=    0.000
 Gap=     0.290 Goal=   None    Shift=    0.000
 RMSDP=6.08D-08 MaxDP=2.52D-06 DE=-7.52D-10 OVMax= 8.57D-06

 Cycle  20  Pass 1  IDiag  1:
 RMSU=  2.98D-08    CP:  1.00D+00  1.07D+00  2.95D+00  3.00D+00  1.89D+00
                    CP:  1.76D+00  1.71D+00  1.79D+00  1.19D+00
 E= -1491.00033743603     Delta-E=       -0.000000000061 Rises=F Damp=F
 DIIS: error= 9.10D-08 at cycle  10 NSaved=  10.
 NSaved=10 IEnMin=10 EnMin= -1491.00033743603     IErMin=10 ErrMin= 9.10D-08
 ErrMax= 9.10D-08  0.00D+00 EMaxC= 1.00D-01 BMatC= 1.89D-11 BMatP= 7.18D-11
 IDIUse=1 WtCom= 1.00D+00 WtEn= 0.00D+00
 Coeff-Com:  0.525D-03-0.938D-02-0.604D-02 0.160D-01 0.166D-01-0.601D-02
 Coeff-Com: -0.532D-01-0.874D-01 0.328D+00 0.801D+00
 Coeff:      0.525D-03-0.938D-02-0.604D-02 0.160D-01 0.166D-01-0.601D-02
 Coeff:     -0.532D-01-0.874D-01 0.328D+00 0.801D+00
 Gap=     0.308 Goal=   None    Shift=    0.000
 Gap=     0.290 Goal=   None    Shift=    0.000
 RMSDP=2.75D-08 MaxDP=1.09D-06 DE=-6.14D-11 OVMax= 3.65D-06

 Cycle  21  Pass 1  IDiag  1:
 RMSU=  1.59D-08    CP:  1.00D+00  1.07D+00  2.95D+00  3.00D+00  1.90D+00
                    CP:  1.76D+00  1.73D+00  1.86D+00  1.33D+00  1.21D+00
 E= -1491.00033743605     Delta-E=       -0.000000000026 Rises=F Damp=F
 DIIS: error= 5.68D-08 at cycle  11 NSaved=  11.
 NSaved=11 IEnMin=11 EnMin= -1491.00033743605     IErMin=11 ErrMin= 5.68D-08
 ErrMax= 5.68D-08  0.00D+00 EMaxC= 1.00D-01 BMatC= 5.49D-12 BMatP= 1.89D-11
 IDIUse=1 WtCom= 1.00D+00 WtEn= 0.00D+00
 Coeff-Com: -0.141D-03 0.545D-02 0.111D-02-0.149D-01 0.756D-03 0.435D-01
 Coeff-Com:  0.220D-01-0.171D+00-0.718D-01 0.378D+00 0.807D+00
 Coeff:     -0.141D-03 0.545D-02 0.111D-02-0.149D-01 0.756D-03 0.435D-01
 Coeff:      0.220D-01-0.171D+00-0.718D-01 0.378D+00 0.807D+00
 Gap=     0.308 Goal=   None    Shift=    0.000
 Gap=     0.290 Goal=   None    Shift=    0.000
 RMSDP=1.52D-08 MaxDP=7.71D-07 DE=-2.64D-11 OVMax= 2.19D-06

 Cycle  22  Pass 1  IDiag  1:
 RMSU=  7.26D-09    CP:  1.00D+00  1.07D+00  2.95D+00  3.00D+00  1.90D+00
                    CP:  1.77D+00  1.75D+00  1.90D+00  1.40D+00  1.45D+00
                    CP:  1.24D+00
 E= -1491.00033743607     Delta-E=       -0.000000000012 Rises=F Damp=F
 DIIS: error= 2.48D-08 at cycle  12 NSaved=  12.
 NSaved=12 IEnMin=12 EnMin= -1491.00033743607     IErMin=12 ErrMin= 2.48D-08
 ErrMax= 2.48D-08  0.00D+00 EMaxC= 1.00D-01 BMatC= 8.33D-13 BMatP= 5.49D-12
 IDIUse=1 WtCom= 1.00D+00 WtEn= 0.00D+00
 Coeff-Com: -0.156D-03 0.351D-02 0.150D-02-0.727D-02-0.327D-02 0.113D-01
 Coeff-Com:  0.164D-01-0.165D-01-0.946D-01-0.117D+00 0.180D+00 0.103D+01
 Coeff:     -0.156D-03 0.351D-02 0.150D-02-0.727D-02-0.327D-02 0.113D-01
 Coeff:      0.164D-01-0.165D-01-0.946D-01-0.117D+00 0.180D+00 0.103D+01
 Gap=     0.308 Goal=   None    Shift=    0.000
 Gap=     0.290 Goal=   None    Shift=    0.000
 RMSDP=8.20D-09 MaxDP=2.83D-07 DE=-1.18D-11 OVMax= 1.21D-06

 SCF Done:  E(UwB97XD) =  -1491.00033744     A.U. after   22 cycles
            NFock= 22  Conv=0.82D-08     -V/T= 2.0053
 <Sx>= 0.0000 <Sy>= 0.0000 <Sz>= 1.0000 <S**2>= 2.0700 S= 1.0232
 <L.S>=  0.00000000000    
 KE= 1.483169370206D+03 PE=-5.981966786611D+03 EE= 1.772138104548D+03
 Annihilation of the first spin contaminant:
 S**2 before annihilation     2.0700,   after     2.0030
 Leave Link  502 at Fri Mar  6 17:32:10 2026, MaxMem=  2415919104 cpu:             259.6 elap:              26.2
 (Enter /prod/precompiled/gaussian/16c2/g16/l508.exe)
 QCSCF skips out because SCF is already converged.
 Leave Link  508 at Fri Mar  6 17:32:10 2026, MaxMem=  2415919104 cpu:               0.1 elap:               0.1
 (Enter /prod/precompiled/gaussian/16c2/g16/l801.exe)
 DoSCS=F DFT=T ScalE2(SS,OS)=  1.000000  1.000000
 Range of M.O.s used for correlation:     1   272
 NBasis=   272 NAE=    65 NBE=    63 NFC=     0 NFV=     0
 NROrb=    272 NOA=    65 NOB=    63 NVA=   207 NVB=   209

 **** Warning!!: The largest alpha MO coefficient is  0.10958117D+02


 **** Warning!!: The largest beta MO coefficient is  0.11525832D+02

 Leave Link  801 at Fri Mar  6 17:32:10 2026, MaxMem=  2415919104 cpu:               0.1 elap:               0.1
 (Enter /prod/precompiled/gaussian/16c2/g16/l1101.exe)
 Using compressed storage, NAtomX=    24.
 Will process     25 centers per pass.
   1 Symmetry operations used in ECPInt.
 ECPInt:  NShTT=    7750 NPrTT=   30142 LenC2=    7120 LenP2D=   19389.
 LDataN:  DoStor=T MaxTD1= 5 Len=  102
 R6Disp: Adding Grimme-D2 dispersion energy 1st derivatives to the gradient.
 Leave Link 1101 at Fri Mar  6 17:32:10 2026, MaxMem=  2415919104 cpu:               2.3 elap:               0.6
 (Enter /prod/precompiled/gaussian/16c2/g16/l1102.exe)
 Symmetrizing basis deriv contribution to polar:
 IMax=3 JMax=2 DiffMx= 0.00D+00
 Leave Link 1102 at Fri Mar  6 17:32:10 2026, MaxMem=  2415919104 cpu:               0.2 elap:               0.1
 (Enter /prod/precompiled/gaussian/16c2/g16/l1110.exe)
 Forming Gx(P) for the SCF density, NAtomX=    24.
 Integral derivatives from FoFJK, PRISM(SPDF).
 Do as many integral derivatives as possible in FoFJK.
 G2DrvN: MDV=    2415916544.
 G2DrvN: will do    25 centers at a time, making    1 passes.
 Calling FoFCou, ICntrl=  3107 FMM=F I1Cent=   0 AccDes= 0.00D+00.
 FoFJK:  IHMeth= 1 ICntrl=    3107 DoSepK=T KAlg= 0 I1Cent=           0 FoldK=F
 IRaf=         1 NMat=       1 IRICut=       1 DoRegI=T DoRafI=F ISym2E= 0 IDoP0=0 IntGTp=1.
 FoFCou: FMM=F IPFlag=           0 FMFlag=      100000 FMFlg1=           0
         NFxFlg=           0 DoJE=F BraDBF=F KetDBF=F FulRan=T
         wScrn=  0.000000 ICntrl=      3507 IOpCl=  0 I1Cent=           0 NGrid=           0
         NMat0=    1 NMatS0=      1 NMatT0=    0 NMatD0=    1 NMtDS0=    0 NMtDT0=    0
 Symmetry not used in FoFCou.
 End of G2Drv F.D. properties file   721 does not exist.
 End of G2Drv F.D. properties file   722 does not exist.
 End of G2Drv F.D. properties file   788 does not exist.
 Leave Link 1110 at Fri Mar  6 17:32:41 2026, MaxMem=  2415919104 cpu:             328.5 elap:              30.2
 (Enter /prod/precompiled/gaussian/16c2/g16/l1002.exe)
 Minotr:  UHF open shell wavefunction.
          IDoAtm=111111111111111111111111
          Direct CPHF calculation.
          Differentiating once with respect to electric field.
                with respect to dipole field.
          Differentiating once with respect to nuclear coordinates.
          Requested convergence is 1.0D-08 RMS, and 1.0D-07 maximum.
          Secondary convergence is 1.0D-12 RMS, and 1.0D-12 maximum.
          NewPWx=T KeepS1=F KeepF1=F KeepIn=T MapXYZ=F SortEE=F KeepMc=T.
         7195 words used for storage of precomputed grid.
 Two-electron integral symmetry not used.
          MDV=    2415919104 using IRadAn=       1.
          Solving linear equations simultaneously, MaxMat=     384.
 FoF2E skips out because all densities are zero.
 CalDSu exits because no D1Ps are significant.
 FoFJK:  IHMeth= 1 ICntrl=       0 DoSepK=T KAlg= 0 I1Cent=           0 FoldK=F
 IRaf=         1 NMat=      72 IRICut=       1 DoRegI=T DoRafI=F ISym2E= 0 IDoP0=3 IntGTp=3.
 FoFCou: FMM=F IPFlag=           0 FMFlag=      100000 FMFlg1=           0
         NFxFlg=           0 DoJE=F BraDBF=F KetDBF=F FulRan=T
         wScrn=  0.000000 ICntrl=       500 IOpCl=  0 I1Cent=           0 NGrid=           0
         NMat0=   72 NMatS0=     72 NMatT0=    0 NMatD0=   72 NMtDS0=    0 NMtDT0=    0
 Symmetry not used in FoFCou.
          There are    75 degrees of freedom in the 1st order CPHF.  IDoFFX=6 NUNeed=     3.
     72 vectors produced by pass  0 Test12= 3.55D-14 1.33D-09 XBig12= 2.62D+02 5.76D+00.
 AX will form    72 AO Fock derivatives at one time.
     72 vectors produced by pass  1 Test12= 3.55D-14 1.33D-09 XBig12= 2.41D+01 6.40D-01.
     72 vectors produced by pass  2 Test12= 3.55D-14 1.33D-09 XBig12= 2.01D+00 1.85D-01.
     72 vectors produced by pass  3 Test12= 3.55D-14 1.33D-09 XBig12= 5.76D-02 2.44D-02.
     72 vectors produced by pass  4 Test12= 3.55D-14 1.33D-09 XBig12= 1.18D-03 3.92D-03.
     72 vectors produced by pass  5 Test12= 3.55D-14 1.33D-09 XBig12= 1.82D-05 4.18D-04.
     72 vectors produced by pass  6 Test12= 3.55D-14 1.33D-09 XBig12= 1.90D-07 3.78D-05.
     51 vectors produced by pass  7 Test12= 3.55D-14 1.33D-09 XBig12= 1.77D-09 4.62D-06.
     24 vectors produced by pass  8 Test12= 3.55D-14 1.33D-09 XBig12= 1.41D-11 4.57D-07.
      3 vectors produced by pass  9 Test12= 3.55D-14 1.33D-09 XBig12= 1.28D-13 2.73D-08.
      2 vectors produced by pass 10 Test12= 3.55D-14 1.33D-09 XBig12= 1.07D-15 2.49D-09.
 InvSVY:  IOpt=1 It=  1 EMax= 1.07D-14
 Solved reduced A of dimension   584 with    75 vectors.
 FullF1:  Do perturbations      1 to       3.
 Isotropic polarizability for W=    0.000000      174.07 Bohr**3.
 End of Minotr F.D. properties file   721 does not exist.
 End of Minotr F.D. properties file   722 does not exist.
 End of Minotr F.D. properties file   788 does not exist.
 Leave Link 1002 at Fri Mar  6 17:33:59 2026, MaxMem=  2415919104 cpu:             780.9 elap:              77.8
 (Enter /prod/precompiled/gaussian/16c2/g16/l601.exe)
 Copying SCF densities to generalized density rwf, IOpCl= 1 IROHF=0.

 **********************************************************************

            Population analysis using the SCF Density.

 **********************************************************************

 Alpha  occ. eigenvalues -- -101.68433-101.68433 -14.50719 -14.50701 -10.37073
 Alpha  occ. eigenvalues --  -10.37072 -10.36170 -10.36167 -10.32063 -10.32062
 Alpha  occ. eigenvalues --  -10.31942 -10.31941 -10.31810 -10.31809 -10.31538
 Alpha  occ. eigenvalues --  -10.31538  -9.59190  -9.59189  -7.34564  -7.34564
 Alpha  occ. eigenvalues --   -7.33628  -7.33628  -7.33577  -7.33577  -1.14952
 Alpha  occ. eigenvalues --   -1.00963  -0.99350  -0.95436  -0.94175  -0.92169
 Alpha  occ. eigenvalues --   -0.86184  -0.84001  -0.83345  -0.79178  -0.73392
 Alpha  occ. eigenvalues --   -0.71400  -0.71351  -0.67037  -0.64567  -0.60274
 Alpha  occ. eigenvalues --   -0.59429  -0.58704  -0.58539  -0.54281  -0.54022
 Alpha  occ. eigenvalues --   -0.53854  -0.52497  -0.52395  -0.52371  -0.48723
 Alpha  occ. eigenvalues --   -0.48392  -0.47159  -0.46687  -0.44838  -0.44457
 Alpha  occ. eigenvalues --   -0.43018  -0.42775  -0.41152  -0.40272  -0.37311
 Alpha  occ. eigenvalues --   -0.36560  -0.33833  -0.33663  -0.28085  -0.26395
 Alpha virt. eigenvalues --    0.04372   0.04404   0.05539   0.06941   0.11390
 Alpha virt. eigenvalues --    0.11590   0.16099   0.16146   0.18276   0.18476
 Alpha virt. eigenvalues --    0.21616   0.21713   0.21867   0.22367   0.22807
 Alpha virt. eigenvalues --    0.22809   0.27584   0.29777   0.33506   0.33832
 Alpha virt. eigenvalues --    0.34151   0.34682   0.35199   0.35934   0.37067
 Alpha virt. eigenvalues --    0.38451   0.41447   0.43132   0.45232   0.46133
 Alpha virt. eigenvalues --    0.46655   0.47688   0.49004   0.50401   0.50641
 Alpha virt. eigenvalues --    0.51469   0.53680   0.53835   0.54132   0.54695
 Alpha virt. eigenvalues --    0.55246   0.56662   0.57383   0.58975   0.59264
 Alpha virt. eigenvalues --    0.60699   0.60802   0.60904   0.61201   0.62435
 Alpha virt. eigenvalues --    0.63896   0.65732   0.67034   0.67440   0.69016
 Alpha virt. eigenvalues --    0.69832   0.71381   0.71402   0.72592   0.73514
 Alpha virt. eigenvalues --    0.73810   0.74042   0.74112   0.74771   0.75744
 Alpha virt. eigenvalues --    0.77627   0.78700   0.78745   0.79337   0.79418
 Alpha virt. eigenvalues --    0.79898   0.81746   0.81935   0.82561   0.83134
 Alpha virt. eigenvalues --    0.84355   0.86361   0.86692   0.87331   0.87967
 Alpha virt. eigenvalues --    0.89241   0.90358   0.90732   0.92122   0.93282
 Alpha virt. eigenvalues --    0.94151   0.95755   0.96702   0.97871   1.01896
 Alpha virt. eigenvalues --    1.01908   1.03721   1.03841   1.05869   1.09198
 Alpha virt. eigenvalues --    1.10488   1.14087   1.20100   1.20874   1.23731
 Alpha virt. eigenvalues --    1.25571   1.26286   1.26824   1.27475   1.27659
 Alpha virt. eigenvalues --    1.31104   1.31311   1.33048   1.33309   1.33879
 Alpha virt. eigenvalues --    1.33930   1.36103   1.36199   1.37932   1.41538
 Alpha virt. eigenvalues --    1.44129   1.44165   1.46616   1.50221   1.51882
 Alpha virt. eigenvalues --    1.53287   1.57894   1.59293   1.60282   1.61404
 Alpha virt. eigenvalues --    1.72666   1.74240   1.77666   1.77731   1.78022
 Alpha virt. eigenvalues --    1.78048   1.80602   1.81180   1.83610   1.83743
 Alpha virt. eigenvalues --    1.84000   1.84470   1.85555   1.86393   1.88225
 Alpha virt. eigenvalues --    1.89427   1.90823   1.91541   1.96029   1.97309
 Alpha virt. eigenvalues --    1.98432   2.00778   2.02270   2.02307   2.02343
 Alpha virt. eigenvalues --    2.04865   2.07020   2.07522   2.10138   2.11707
 Alpha virt. eigenvalues --    2.15230   2.17275   2.17543   2.20697   2.21338
 Alpha virt. eigenvalues --    2.21717   2.21803   2.23612   2.28691   2.31333
 Alpha virt. eigenvalues --    2.31354   2.31865   2.33803   2.35461   2.35666
 Alpha virt. eigenvalues --    2.36745   2.39682   2.39811   2.43253   2.48235
 Alpha virt. eigenvalues --    2.48513   2.53096   2.56821   2.59150   2.59689
 Alpha virt. eigenvalues --    2.66895   2.66982   2.68107   2.70053   2.70515
 Alpha virt. eigenvalues --    2.70780   2.73811   2.79785   2.80040   2.80747
 Alpha virt. eigenvalues --    2.86357   2.88131   2.89936   2.90306   2.95827
 Alpha virt. eigenvalues --    2.99377   3.00716   3.07054   3.13319   3.15609
 Alpha virt. eigenvalues --    3.22280   3.25628   3.28507   3.41160   3.60140
 Alpha virt. eigenvalues --    3.67662   3.68724
  Beta  occ. eigenvalues -- -101.68408-101.68407 -14.49227 -14.49198 -10.36788
  Beta  occ. eigenvalues --  -10.36788 -10.36275 -10.36272 -10.32192 -10.32191
  Beta  occ. eigenvalues --  -10.31715 -10.31715 -10.31672 -10.31672 -10.31573
  Beta  occ. eigenvalues --  -10.31572  -9.59162  -9.59162  -7.34563  -7.34563
  Beta  occ. eigenvalues --   -7.33551  -7.33550  -7.33532  -7.33532  -1.11620
  Beta  occ. eigenvalues --   -1.00330  -0.98864  -0.94718  -0.93945  -0.90924
  Beta  occ. eigenvalues --   -0.85720  -0.83807  -0.83151  -0.77466  -0.72353
  Beta  occ. eigenvalues --   -0.70962  -0.70961  -0.66560  -0.63878  -0.59508
  Beta  occ. eigenvalues --   -0.58834  -0.57703  -0.57326  -0.53956  -0.53670
  Beta  occ. eigenvalues --   -0.52289  -0.52258  -0.51230  -0.50903  -0.47095
  Beta  occ. eigenvalues --   -0.46615  -0.46221  -0.46028  -0.43894  -0.43046
  Beta  occ. eigenvalues --   -0.42111  -0.42107  -0.40084  -0.39378  -0.34605
  Beta  occ. eigenvalues --   -0.34018  -0.33087  -0.32664
  Beta virt. eigenvalues --   -0.03711  -0.02644   0.05086   0.05139   0.08057
  Beta virt. eigenvalues --    0.09726   0.12163   0.12179   0.16252   0.16297
  Beta virt. eigenvalues --    0.18388   0.18572   0.21752   0.21866   0.22550
  Beta virt. eigenvalues --    0.22660   0.23026   0.23566   0.27979   0.31235
  Beta virt. eigenvalues --    0.34016   0.34112   0.34440   0.34785   0.35486
  Beta virt. eigenvalues --    0.35995   0.37237   0.38783   0.41884   0.43459
  Beta virt. eigenvalues --    0.45609   0.46289   0.46895   0.47962   0.49519
  Beta virt. eigenvalues --    0.50610   0.51057   0.51792   0.54038   0.54134
  Beta virt. eigenvalues --    0.54433   0.54868   0.55721   0.56887   0.57695
  Beta virt. eigenvalues --    0.59497   0.59675   0.61039   0.61163   0.61228
  Beta virt. eigenvalues --    0.62027   0.63391   0.64718   0.66181   0.67519
  Beta virt. eigenvalues --    0.67872   0.69346   0.69954   0.71611   0.71785
  Beta virt. eigenvalues --    0.72780   0.73630   0.74057   0.74350   0.74673
  Beta virt. eigenvalues --    0.75074   0.76075   0.78095   0.78934   0.79088
  Beta virt. eigenvalues --    0.79352   0.79676   0.80133   0.81959   0.82750
  Beta virt. eigenvalues --    0.83679   0.83757   0.84458   0.86633   0.87120
  Beta virt. eigenvalues --    0.87822   0.88450   0.89584   0.90552   0.90999
  Beta virt. eigenvalues --    0.92352   0.93888   0.94698   0.96390   0.97137
  Beta virt. eigenvalues --    0.98948   1.02520   1.02984   1.04149   1.04245
  Beta virt. eigenvalues --    1.06987   1.09987   1.10794   1.14278   1.20904
  Beta virt. eigenvalues --    1.21505   1.24442   1.25967   1.26580   1.27256
  Beta virt. eigenvalues --    1.28158   1.28344   1.31404   1.31680   1.33318
  Beta virt. eigenvalues --    1.33473   1.34026   1.34126   1.36299   1.36457
  Beta virt. eigenvalues --    1.38174   1.41820   1.45050   1.45080   1.47119
  Beta virt. eigenvalues --    1.50671   1.52465   1.54005   1.58084   1.59539
  Beta virt. eigenvalues --    1.60842   1.62016   1.72797   1.74362   1.77807
  Beta virt. eigenvalues --    1.77848   1.78185   1.78210   1.80984   1.81632
  Beta virt. eigenvalues --    1.83839   1.83942   1.84234   1.84740   1.85739
  Beta virt. eigenvalues --    1.86547   1.88618   1.89534   1.91045   1.92019
  Beta virt. eigenvalues --    1.96805   1.97858   1.98945   2.01415   2.02473
  Beta virt. eigenvalues --    2.02474   2.02859   2.04804   2.07864   2.09190
  Beta virt. eigenvalues --    2.10790   2.12565   2.16129   2.18721   2.19742
  Beta virt. eigenvalues --    2.21578   2.21884   2.22049   2.23064   2.24256
  Beta virt. eigenvalues --    2.29409   2.31791   2.31833   2.32476   2.34421
  Beta virt. eigenvalues --    2.35779   2.35938   2.37368   2.39954   2.40085
  Beta virt. eigenvalues --    2.45036   2.48925   2.49648   2.54313   2.57891
  Beta virt. eigenvalues --    2.60589   2.61438   2.67288   2.67740   2.68844
  Beta virt. eigenvalues --    2.70555   2.70910   2.71531   2.76392   2.79864
  Beta virt. eigenvalues --    2.80117   2.82543   2.86823   2.88537   2.90045
  Beta virt. eigenvalues --    2.90604   2.96921   3.00128   3.01848   3.07544
  Beta virt. eigenvalues --    3.13644   3.15771   3.22768   3.27664   3.29379
  Beta virt. eigenvalues --    3.43186   3.62120   3.68095   3.69633
          Condensed to atoms (all electrons):
               1          2          3          4          5          6
     1  C    5.069170   0.184698  -0.053963   0.086222  -0.134210   0.092821
     2  C    0.184698   5.356492   0.255232   0.335176   0.084844  -0.146014
     3  Cl  -0.053963   0.255232  16.912875  -0.053729   0.002670   0.000675
     4  C    0.086222   0.335176  -0.053729   4.975419   0.305832   0.077159
     5  C   -0.134210   0.084844   0.002670   0.305832   5.076322   0.266889
     6  C    0.092821  -0.146014   0.000675   0.077159   0.266889   5.095586
     7  C    0.336627   0.036645   0.001389  -0.103686   0.072302   0.287528
     8  N    0.424197  -0.073055  -0.007516   0.005590  -0.000389   0.008294
     9  N   -0.041994  -0.020611  -0.005236  -0.000024   0.000019  -0.000293
    10  C   -0.001761   0.002130   0.006790  -0.000029  -0.000004   0.000027
    11  C    0.002131  -0.000324   0.002767   0.000004  -0.000000  -0.000007
    12  Cl   0.006746   0.002790   0.000087  -0.000396   0.000074  -0.000299
    13  C   -0.000029   0.000004  -0.000393  -0.000000   0.000000  -0.000000
    14  C   -0.000004  -0.000000   0.000073   0.000000  -0.000000   0.000000
    15  C    0.000027  -0.000007  -0.000296  -0.000000   0.000000  -0.000000
    16  C   -0.000794   0.000153   0.000598  -0.000000   0.000000   0.000000
    17  H    0.016038  -0.062274   0.001517   0.438626  -0.058404   0.012512
    18  H   -0.001700   0.013939  -0.000118  -0.060724   0.445683  -0.064639
    19  H    0.013198  -0.001760   0.000007   0.012505  -0.065407   0.447699
    20  H   -0.060806   0.019115  -0.000071  -0.002954   0.013340  -0.069532
    21  H    0.000001  -0.000000  -0.000002   0.000000  -0.000000   0.000000
    22  H    0.000000   0.000000   0.000000  -0.000000   0.000000  -0.000000
    23  H   -0.000000   0.000000  -0.000001   0.000000  -0.000000   0.000000
    24  H    0.000013   0.000003   0.000327   0.000000  -0.000000  -0.000000
               7          8          9         10         11         12
     1  C    0.336627   0.424197  -0.041994  -0.001761   0.002131   0.006746
     2  C    0.036645  -0.073055  -0.020611   0.002130  -0.000324   0.002790
     3  Cl   0.001389  -0.007516  -0.005236   0.006790   0.002767   0.000087
     4  C   -0.103686   0.005590  -0.000024  -0.000029   0.000004  -0.000396
     5  C    0.072302  -0.000389   0.000019  -0.000004  -0.000000   0.000074
     6  C    0.287528   0.008294  -0.000293   0.000027  -0.000007  -0.000299
     7  C    5.069655  -0.081850   0.009321  -0.000793   0.000154   0.000611
     8  N   -0.081850   6.644519   0.209924  -0.042010  -0.020605  -0.005237
     9  N    0.009321   0.209924   6.644409   0.424218  -0.073059  -0.007505
    10  C   -0.000793  -0.042010   0.424218   5.069126   0.184786  -0.053944
    11  C    0.000154  -0.020605  -0.073059   0.184786   5.356382   0.255207
    12  Cl   0.000611  -0.005237  -0.007505  -0.053944   0.255207  16.912895
    13  C   -0.000000  -0.000024   0.005588   0.086194   0.335252  -0.053741
    14  C    0.000000   0.000019  -0.000389  -0.134180   0.084803   0.002671
    15  C    0.000000  -0.000294   0.008290   0.092787  -0.145974   0.000675
    16  C    0.000003   0.009326  -0.081836   0.336642   0.036595   0.001389
    17  H   -0.002083  -0.000074   0.000011   0.000001  -0.000000  -0.000002
    18  H    0.012474   0.000005  -0.000000   0.000000   0.000000   0.000000
    19  H   -0.061263  -0.000114   0.000003  -0.000000   0.000000  -0.000001
    20  H    0.445864  -0.001425  -0.000231   0.000013   0.000003   0.000328
    21  H   -0.000000   0.000011  -0.000074   0.016033  -0.062273   0.001514
    22  H    0.000000  -0.000000   0.000005  -0.001699   0.013937  -0.000118
    23  H    0.000000   0.000003  -0.000114   0.013196  -0.001759   0.000007
    24  H    0.000001  -0.000231  -0.001426  -0.060797   0.019113  -0.000071
              13         14         15         16         17         18
     1  C   -0.000029  -0.000004   0.000027  -0.000794   0.016038  -0.001700
     2  C    0.000004  -0.000000  -0.000007   0.000153  -0.062274   0.013939
     3  Cl  -0.000393   0.000073  -0.000296   0.000598   0.001517  -0.000118
     4  C   -0.000000   0.000000  -0.000000  -0.000000   0.438626  -0.060724
     5  C    0.000000  -0.000000   0.000000   0.000000  -0.058404   0.445683
     6  C   -0.000000   0.000000  -0.000000   0.000000   0.012512  -0.064639
     7  C   -0.000000   0.000000   0.000000   0.000003  -0.002083   0.012474
     8  N   -0.000024   0.000019  -0.000294   0.009326  -0.000074   0.000005
     9  N    0.005588  -0.000389   0.008290  -0.081836   0.000011  -0.000000
    10  C    0.086194  -0.134180   0.092787   0.336642   0.000001   0.000000
    11  C    0.335252   0.084803  -0.145974   0.036595  -0.000000   0.000000
    12  Cl  -0.053741   0.002671   0.000675   0.001389  -0.000002   0.000000
    13  C    4.975339   0.305880   0.077112  -0.103648   0.000000  -0.000000
    14  C    0.305880   5.076228   0.266978   0.072265  -0.000000   0.000000
    15  C    0.077112   0.266978   5.095494   0.287601   0.000000  -0.000000
    16  C   -0.103648   0.072265   0.287601   5.069605  -0.000000   0.000000
    17  H    0.000000  -0.000000   0.000000  -0.000000   0.642147  -0.011357
    18  H   -0.000000   0.000000  -0.000000   0.000000  -0.011357   0.644957
    19  H    0.000000  -0.000000   0.000000   0.000000  -0.000203  -0.010487
    20  H    0.000000  -0.000000  -0.000000   0.000001   0.000018  -0.000194
    21  H    0.438623  -0.058396   0.012510  -0.002083   0.000000  -0.000000
    22  H   -0.060725   0.445677  -0.064632   0.012473  -0.000000   0.000000
    23  H    0.012504  -0.065398   0.447689  -0.061261   0.000000  -0.000000
    24  H   -0.002953   0.013338  -0.069524   0.445852  -0.000000   0.000000
              19         20         21         22         23         24
     1  C    0.013198  -0.060806   0.000001   0.000000  -0.000000   0.000013
     2  C   -0.001760   0.019115  -0.000000   0.000000   0.000000   0.000003
     3  Cl   0.000007  -0.000071  -0.000002   0.000000  -0.000001   0.000327
     4  C    0.012505  -0.002954   0.000000  -0.000000   0.000000   0.000000
     5  C   -0.065407   0.013340  -0.000000   0.000000  -0.000000  -0.000000
     6  C    0.447699  -0.069532   0.000000  -0.000000   0.000000  -0.000000
     7  C   -0.061263   0.445864  -0.000000   0.000000   0.000000   0.000001
     8  N   -0.000114  -0.001425   0.000011  -0.000000   0.000003  -0.000231
     9  N    0.000003  -0.000231  -0.000074   0.000005  -0.000114  -0.001426
    10  C   -0.000000   0.000013   0.016033  -0.001699   0.013196  -0.060797
    11  C    0.000000   0.000003  -0.062273   0.013937  -0.001759   0.019113
    12  Cl  -0.000001   0.000328   0.001514  -0.000118   0.000007  -0.000071
    13  C    0.000000   0.000000   0.438623  -0.060725   0.012504  -0.002953
    14  C   -0.000000  -0.000000  -0.058396   0.445677  -0.065398   0.013338
    15  C    0.000000  -0.000000   0.012510  -0.064632   0.447689  -0.069524
    16  C    0.000000   0.000001  -0.002083   0.012473  -0.061261   0.445852
    17  H   -0.000203   0.000018   0.000000  -0.000000   0.000000  -0.000000
    18  H   -0.010487  -0.000194  -0.000000   0.000000  -0.000000   0.000000
    19  H    0.646298  -0.011212   0.000000  -0.000000   0.000000  -0.000000
    20  H   -0.011212   0.641791  -0.000000   0.000000  -0.000000   0.000000
    21  H    0.000000  -0.000000   0.642130  -0.011355  -0.000203   0.000018
    22  H   -0.000000   0.000000  -0.011355   0.644956  -0.010488  -0.000194
    23  H    0.000000  -0.000000  -0.000203  -0.010488   0.646293  -0.011211
    24  H   -0.000000   0.000000   0.000018  -0.000194  -0.011211   0.641774
          Atomic-Atomic Spin Densities.
               1          2          3          4          5          6
     1  C   -0.142992  -0.012595   0.002673   0.004502  -0.000489   0.003244
     2  C   -0.012595   0.272278  -0.027490  -0.007988  -0.009975  -0.000625
     3  Cl   0.002673  -0.027490   0.054409   0.000009   0.000284  -0.000005
     4  C    0.004502  -0.007988   0.000009  -0.123247   0.000055   0.001803
     5  C   -0.000489  -0.009975   0.000284   0.000055   0.242179  -0.004741
     6  C    0.003244  -0.000625  -0.000005   0.001803  -0.004741  -0.132594
     7  C    0.005716   0.012223  -0.000099  -0.001720  -0.009899   0.000943
     8  N   -0.007353  -0.013012   0.002073   0.000039   0.000165   0.000066
     9  N   -0.006796   0.011473  -0.007401  -0.000460  -0.000004   0.000042
    10  C   -0.001743   0.000257  -0.000484   0.000017  -0.000001  -0.000001
    11  C    0.000253  -0.000452   0.000667   0.000022   0.000000   0.000000
    12  Cl  -0.000481   0.000669  -0.000043  -0.000024  -0.000006   0.000004
    13  C    0.000017   0.000022  -0.000024  -0.000000  -0.000000   0.000000
    14  C   -0.000001   0.000000  -0.000006  -0.000000   0.000000   0.000000
    15  C   -0.000001   0.000000   0.000004   0.000000   0.000000   0.000000
    16  C    0.000148  -0.000052   0.000373   0.000001  -0.000000  -0.000000
    17  H   -0.000257   0.000042   0.000783  -0.002083  -0.000132   0.000077
    18  H    0.000004  -0.000164  -0.000000   0.000029   0.001922   0.000196
    19  H    0.000091  -0.000016  -0.000000   0.000087  -0.000421   0.000091
    20  H   -0.004340   0.000895   0.000001  -0.000231  -0.000019   0.000957
    21  H   -0.000000  -0.000001   0.000001   0.000000   0.000000   0.000000
    22  H    0.000000   0.000000  -0.000000   0.000000  -0.000000  -0.000000
    23  H    0.000000   0.000000  -0.000000  -0.000000   0.000000  -0.000000
    24  H    0.000005   0.000011  -0.000066   0.000000  -0.000000   0.000000
               7          8          9         10         11         12
     1  C    0.005716  -0.007353  -0.006796  -0.001743   0.000253  -0.000481
     2  C    0.012223  -0.013012   0.011473   0.000257  -0.000452   0.000669
     3  Cl  -0.000099   0.002073  -0.007401  -0.000484   0.000667  -0.000043
     4  C   -0.001720   0.000039  -0.000460   0.000017   0.000022  -0.000024
     5  C   -0.009899   0.000165  -0.000004  -0.000001   0.000000  -0.000006
     6  C    0.000943   0.000066   0.000042  -0.000001   0.000000   0.000004
     7  C    0.221707  -0.018719   0.000306   0.000148  -0.000052   0.000374
     8  N   -0.018719   1.025375  -0.243929  -0.006807   0.011491  -0.007384
     9  N    0.000306  -0.243929   1.025435  -0.007357  -0.013010   0.002061
    10  C    0.000148  -0.006807  -0.007357  -0.142930  -0.012619   0.002672
    11  C   -0.000052   0.011491  -0.013010  -0.012619   0.272238  -0.027478
    12  Cl   0.000374  -0.007384   0.002061   0.002672  -0.027478   0.054376
    13  C    0.000001  -0.000460   0.000038   0.004491  -0.007984   0.000010
    14  C   -0.000000  -0.000004   0.000165  -0.000487  -0.009971   0.000284
    15  C   -0.000000   0.000042   0.000066   0.003251  -0.000632  -0.000005
    16  C   -0.000000   0.000306  -0.018725   0.005714   0.012245  -0.000098
    17  H    0.000010  -0.000020   0.000021  -0.000000  -0.000001   0.000001
    18  H   -0.000094   0.000000  -0.000000   0.000000   0.000000  -0.000000
    19  H   -0.000542  -0.000003  -0.000000   0.000000   0.000000  -0.000000
    20  H   -0.001280   0.004803  -0.000203   0.000005   0.000011  -0.000066
    21  H   -0.000000   0.000021  -0.000020  -0.000256   0.000044   0.000782
    22  H    0.000000  -0.000000   0.000000   0.000004  -0.000164  -0.000000
    23  H   -0.000000  -0.000000  -0.000003   0.000091  -0.000016  -0.000000
    24  H    0.000001  -0.000203   0.004801  -0.004341   0.000895   0.000001
              13         14         15         16         17         18
     1  C    0.000017  -0.000001  -0.000001   0.000148  -0.000257   0.000004
     2  C    0.000022   0.000000   0.000000  -0.000052   0.000042  -0.000164
     3  Cl  -0.000024  -0.000006   0.000004   0.000373   0.000783  -0.000000
     4  C   -0.000000  -0.000000   0.000000   0.000001  -0.002083   0.000029
     5  C   -0.000000   0.000000   0.000000  -0.000000  -0.000132   0.001922
     6  C    0.000000   0.000000   0.000000  -0.000000   0.000077   0.000196
     7  C    0.000001  -0.000000  -0.000000  -0.000000   0.000010  -0.000094
     8  N   -0.000460  -0.000004   0.000042   0.000306  -0.000020   0.000000
     9  N    0.000038   0.000165   0.000066  -0.018725   0.000021  -0.000000
    10  C    0.004491  -0.000487   0.003251   0.005714  -0.000000   0.000000
    11  C   -0.007984  -0.009971  -0.000632   0.012245  -0.000001   0.000000
    12  Cl   0.000010   0.000284  -0.000005  -0.000098   0.000001  -0.000000
    13  C   -0.123230   0.000059   0.001808  -0.001724   0.000000   0.000000
    14  C    0.000059   0.242135  -0.004742  -0.009897   0.000000  -0.000000
    15  C    0.001808  -0.004742  -0.132583   0.000946   0.000000  -0.000000
    16  C   -0.001724  -0.009897   0.000946   0.221651  -0.000000   0.000000
    17  H    0.000000   0.000000   0.000000  -0.000000   0.007813   0.000049
    18  H    0.000000  -0.000000  -0.000000   0.000000   0.000049  -0.011911
    19  H   -0.000000   0.000000  -0.000000  -0.000000  -0.000003   0.000084
    20  H    0.000000  -0.000000   0.000000   0.000001   0.000008   0.000002
    21  H   -0.002082  -0.000133   0.000077   0.000010   0.000000  -0.000000
    22  H    0.000028   0.001922   0.000196  -0.000094  -0.000000   0.000000
    23  H    0.000087  -0.000421   0.000092  -0.000542   0.000000   0.000000
    24  H   -0.000231  -0.000019   0.000954  -0.001276   0.000000  -0.000000
              19         20         21         22         23         24
     1  C    0.000091  -0.004340  -0.000000   0.000000   0.000000   0.000005
     2  C   -0.000016   0.000895  -0.000001   0.000000   0.000000   0.000011
     3  Cl  -0.000000   0.000001   0.000001  -0.000000  -0.000000  -0.000066
     4  C    0.000087  -0.000231   0.000000   0.000000  -0.000000   0.000000
     5  C   -0.000421  -0.000019   0.000000  -0.000000   0.000000  -0.000000
     6  C    0.000091   0.000957   0.000000  -0.000000  -0.000000   0.000000
     7  C   -0.000542  -0.001280  -0.000000   0.000000  -0.000000   0.000001
     8  N   -0.000003   0.004803   0.000021  -0.000000  -0.000000  -0.000203
     9  N   -0.000000  -0.000203  -0.000020   0.000000  -0.000003   0.004801
    10  C    0.000000   0.000005  -0.000256   0.000004   0.000091  -0.004341
    11  C    0.000000   0.000011   0.000044  -0.000164  -0.000016   0.000895
    12  Cl  -0.000000  -0.000066   0.000782  -0.000000  -0.000000   0.000001
    13  C   -0.000000   0.000000  -0.002082   0.000028   0.000087  -0.000231
    14  C    0.000000  -0.000000  -0.000133   0.001922  -0.000421  -0.000019
    15  C   -0.000000   0.000000   0.000077   0.000196   0.000092   0.000954
    16  C   -0.000000   0.000001   0.000010  -0.000094  -0.000542  -0.001276
    17  H   -0.000003   0.000008   0.000000  -0.000000   0.000000   0.000000
    18  H    0.000084   0.000002  -0.000000   0.000000   0.000000  -0.000000
    19  H    0.005308   0.000024   0.000000   0.000000   0.000000   0.000000
    20  H    0.000024  -0.007134   0.000000  -0.000000   0.000000  -0.000000
    21  H    0.000000   0.000000   0.007811   0.000049  -0.000003   0.000008
    22  H    0.000000  -0.000000   0.000049  -0.011909   0.000084   0.000002
    23  H    0.000000   0.000000  -0.000003   0.000084   0.005307   0.000024
    24  H    0.000000  -0.000000   0.000008   0.000002   0.000024  -0.007130
 Mulliken charges and spin densities:
               1          2
     1  C    0.063373  -0.160394
     2  C    0.012822   0.225498
     3  Cl  -0.063682   0.025660
     4  C   -0.014989  -0.129190
     5  C   -0.009559   0.218918
     6  C   -0.008405  -0.130544
     7  C   -0.022898   0.209024
     8  N   -0.069062   0.746488
     9  N   -0.068994   0.746501
    10  C    0.063275  -0.160378
    11  C    0.012867   0.225486
    12  Cl  -0.063681   0.025649
    13  C   -0.014982  -0.129174
    14  C   -0.009563   0.218884
    15  C   -0.008437  -0.130530
    16  C   -0.022883   0.208987
    17  H    0.023527   0.006308
    18  H    0.032162  -0.009884
    19  H    0.030738   0.004700
    20  H    0.025951  -0.006567
    21  H    0.023545   0.006307
    22  H    0.032163  -0.009883
    23  H    0.030743   0.004699
    24  H    0.025968  -0.006564
 Sum of Mulliken charges =  -0.00000   2.00000
 Mulliken charges and spin densities with hydrogens summed into heavy atoms:
               1          2
     1  C    0.063373  -0.160394
     2  C    0.012822   0.225498
     3  Cl  -0.063682   0.025660
     4  C    0.008537  -0.122882
     5  C    0.022603   0.209034
     6  C    0.022334  -0.125844
     7  C    0.003053   0.202457
     8  N   -0.069062   0.746488
     9  N   -0.068994   0.746501
    10  C    0.063275  -0.160378
    11  C    0.012867   0.225486
    12  Cl  -0.063681   0.025649
    13  C    0.008564  -0.122867
    14  C    0.022599   0.209001
    15  C    0.022306  -0.125831
    16  C    0.003086   0.202423
 APT charges:
               1
     1  C    0.261048
     2  C    0.202135
     3  Cl  -0.240753
     4  C   -0.089406
     5  C   -0.051922
     6  C   -0.022192
     7  C   -0.045198
     8  N   -0.221193
     9  N   -0.220609
    10  C    0.261113
    11  C    0.202475
    12  Cl  -0.240687
    13  C   -0.089312
    14  C   -0.051778
    15  C   -0.022343
    16  C   -0.045362
    17  H    0.057951
    18  H    0.040397
    19  H    0.038597
    20  H    0.070057
    21  H    0.057877
    22  H    0.040372
    23  H    0.038584
    24  H    0.070149
 Sum of APT charges =  -0.00000
 APT charges with hydrogens summed into heavy atoms:
               1
     1  C    0.261048
     2  C    0.202135
     3  Cl  -0.240753
     4  C   -0.031455
     5  C   -0.011524
     6  C    0.016405
     7  C    0.024859
     8  N   -0.221193
     9  N   -0.220609
    10  C    0.261113
    11  C    0.202475
    12  Cl  -0.240687
    13  C   -0.031435
    14  C   -0.011406
    15  C    0.016242
    16  C    0.024787
 Electronic spatial extent (au):  <R**2>=           5888.0342
 Charge=             -0.0000 electrons
 Dipole moment (field-independent basis, Debye):
    X=             -0.1667    Y=              0.4093    Z=              0.5939  Tot=              0.7404
 Quadrupole moment (field-independent basis, Debye-Ang):
   XX=            -88.3660   YY=           -103.4544   ZZ=            -99.1433
   XY=             -5.1940   XZ=              8.9142   YZ=             -4.0075
 Traceless Quadrupole moment (field-independent basis, Debye-Ang):
   XX=              8.6219   YY=             -6.4665   ZZ=             -2.1554
   XY=             -5.1940   XZ=              8.9142   YZ=             -4.0075
 Octapole moment (field-independent basis, Debye-Ang**2):
  XXX=           -137.8409  YYY=            386.6280  ZZZ=           -352.8489  XYY=            -60.8921
  XXY=             97.0963  XXZ=           -113.3480  XZZ=            -26.0499  YZZ=             91.9724
  YYZ=           -124.3649  XYZ=            -23.3579
 Hexadecapole moment (field-independent basis, Debye-Ang**3):
 XXXX=          -2655.4232 YYYY=          -2470.1347 ZZZZ=          -2404.6109 XXXY=            608.3085
 XXXZ=           -735.5727 YYYX=            764.5525 YYYZ=            973.7682 ZZZX=           -779.7011
 ZZZY=            803.2565 XXYY=           -843.2404 XXZZ=           -827.7789 YYZZ=           -764.5701
 XXYZ=            234.3097 YYXZ=           -251.3963 ZZXY=            148.4506
 N-N= 1.235658974420D+03 E-N=-5.981966783914D+03  KE= 1.483169370206D+03
  Exact polarizability:     237.553     -37.943     136.957      61.861     -29.101     147.713
 Approx polarizability:     248.086     -16.569     154.891      40.550     -12.179     163.761
                          Isotropic Fermi Contact Couplings
        Atom                 a.u.       MegaHertz       Gauss      10(-4) cm-1
     1  C(13)              0.02638      14.82954       5.29155       4.94660
     2  C(13)              0.05054      28.40611      10.13601       9.47526
     3  Cl(35)             0.01412       3.09485       1.10432       1.03233
     4  C(13)             -0.02427     -13.64145      -4.86761      -4.55030
     5  C(13)              0.03746      21.05669       7.51355       7.02375
     6  C(13)             -0.03003     -16.87866      -6.02272      -5.63011
     7  C(13)              0.03755      21.10540       7.53093       7.04000
     8  N(14)              0.40459      65.36189      23.32275      21.80238
     9  N(14)              0.40461      65.36557      23.32406      21.80361
    10  C(13)              0.02644      14.85961       5.30228       4.95663
    11  C(13)              0.05052      28.39619      10.13247       9.47195
    12  Cl(35)             0.01404       3.07883       1.09860       1.02699
    13  C(13)             -0.02427     -13.64239      -4.86794      -4.55061
    14  C(13)              0.03746      21.05463       7.51282       7.02307
    15  C(13)             -0.03003     -16.87718      -6.02220      -5.62962
    16  C(13)              0.03754      21.09838       7.52843       7.03766
    17  H(1)               0.00177       3.95128       1.40992       1.31801
    18  H(1)              -0.00299      -6.67510      -2.38184      -2.22657
    19  H(1)               0.00140       3.12746       1.11596       1.04321
    20  H(1)              -0.00286      -6.38499      -2.27832      -2.12980
    21  H(1)               0.00177       3.95109       1.40985       1.31794
    22  H(1)              -0.00299      -6.67408      -2.38148      -2.22623
    23  H(1)               0.00140       3.12696       1.11578       1.04304
    24  H(1)              -0.00286      -6.38285      -2.27756      -2.12909
 --------------------------------------------------------
       Center         ----  Spin Dipole Couplings  ----
                      3XX-RR        3YY-RR        3ZZ-RR
 --------------------------------------------------------
     1   Atom        0.063028      0.113836     -0.176864
     2   Atom       -0.078790     -0.079578      0.158368
     3   Atom       -0.076607     -0.031058      0.107666
     4   Atom        0.039395      0.048573     -0.087968
     5   Atom       -0.066362     -0.099809      0.166172
     6   Atom        0.034566      0.051525     -0.086091
     7   Atom       -0.054138     -0.096814      0.150952
     8   Atom       -0.544389     -0.190331      0.734720
     9   Atom       -0.597998      0.933240     -0.335242
    10   Atom        0.058464     -0.183582      0.125118
    11   Atom       -0.118140      0.189805     -0.071665
    12   Atom       -0.175736      0.124319      0.051417
    13   Atom        0.054427     -0.100205      0.045778
    14   Atom       -0.107964      0.188570     -0.080605
    15   Atom        0.050963     -0.096862      0.045899
    16   Atom       -0.092743      0.171732     -0.078989
    17   Atom        0.004545     -0.000735     -0.003810
    18   Atom        0.003042     -0.000636     -0.002406
    19   Atom       -0.000197      0.004048     -0.003851
    20   Atom        0.002670      0.003852     -0.006522
    21   Atom        0.002729     -0.004187      0.001458
    22   Atom       -0.006060     -0.000609      0.006669
    23   Atom       -0.001994     -0.003367      0.005361
    24   Atom        0.008997     -0.008696     -0.000301
 --------------------------------------------------------
                        XY            XZ            YZ
 --------------------------------------------------------
     1   Atom       -0.095410      0.101580      0.001982
     2   Atom        0.019621     -0.110160     -0.042208
     3   Atom       -0.082087     -0.136389     -0.005604
     4   Atom       -0.016753      0.054103      0.019334
     5   Atom        0.007842     -0.100898     -0.043990
     6   Atom       -0.013025      0.051476      0.019536
     7   Atom        0.008353     -0.090963     -0.041418
     8   Atom        0.377705     -0.603664     -0.109758
     9   Atom        0.216988     -0.358075      0.331108
    10   Atom       -0.029867      0.067339     -0.108254
    11   Atom        0.014286     -0.007491      0.072698
    12   Atom        0.009773      0.048930      0.087246
    13   Atom       -0.005453      0.008443     -0.041867
    14   Atom        0.001312      0.008079      0.078943
    15   Atom       -0.003468      0.003648     -0.041970
    16   Atom        0.002189      0.010314      0.072928
    17   Atom       -0.004537      0.002824     -0.001118
    18   Atom       -0.015125     -0.000617     -0.005574
    19   Atom       -0.004518      0.000797     -0.000446
    20   Atom        0.006613      0.005705      0.004413
    21   Atom       -0.001606      0.005319     -0.001795
    22   Atom       -0.003876      0.014356     -0.002434
    23   Atom       -0.000797      0.002713     -0.002616
    24   Atom        0.001322     -0.006460     -0.002487
 --------------------------------------------------------


 ---------------------------------------------------------------------------------
              Anisotropic Spin Dipole Couplings in Principal Axis System
 ---------------------------------------------------------------------------------

       Atom             a.u.   MegaHertz   Gauss  10(-4) cm-1        Axes

              Baa    -0.2180   -29.256   -10.439    -9.759 -0.3712 -0.1122  0.9217
     1 C(13)  Bbb     0.0202     2.714     0.969     0.905  0.6605  0.6658  0.3471
              Bcc     0.1978    26.542     9.471     8.853 -0.6527  0.7376 -0.1731
 
              Baa    -0.1223   -16.410    -5.855    -5.474  0.9320 -0.0783  0.3540
     2 C(13)  Bbb    -0.0868   -11.652    -4.158    -3.887  0.0156  0.9842  0.1764
              Bcc     0.2091    28.062    10.013     9.360 -0.3622 -0.1589  0.9184
 
              Baa    -0.1862    -9.744    -3.477    -3.250  0.8101  0.4426  0.3845
     3 Cl(35) Bbb     0.0004     0.022     0.008     0.007 -0.3139  0.8813 -0.3532
              Bcc     0.1858     9.722     3.469     3.243 -0.4951  0.1654  0.8529
 
              Baa    -0.1114   -14.954    -5.336    -4.988 -0.3485 -0.1483  0.9255
     4 C(13)  Bbb     0.0461     6.183     2.206     2.062  0.4829  0.8178  0.3129
              Bcc     0.0654     8.771     3.130     2.926  0.8033 -0.5560  0.2134
 
              Baa    -0.1131   -15.173    -5.414    -5.061  0.5837  0.7428  0.3279
     5 C(13)  Bbb    -0.0970   -13.019    -4.645    -4.343  0.7360 -0.6546  0.1727
              Bcc     0.2101    28.192    10.059     9.404 -0.3430 -0.1405  0.9288
 
              Baa    -0.1083   -14.537    -5.187    -4.849 -0.3469 -0.1416  0.9272
     6 C(13)  Bbb     0.0487     6.538     2.333     2.181  0.6664  0.6584  0.3499
              Bcc     0.0596     7.999     2.854     2.668 -0.6600  0.7392 -0.1341
 
              Baa    -0.1056   -14.169    -5.056    -4.726  0.3028  0.9181  0.2556
[...]
 93,-0.00015986,-0.00000923,-0.00008259,-0.00001164,-0.00008804,0.00025
 939,0.00000193,0.00048815,0.00038298,0.00013358,0.00977414,0.00153334,
 0.00352577,-0.05299916,0.01454655,-0.05142141,-0.29537069,-0.00528904,
 0.02663626,-0.01027180,-0.01473131,0.05739289,-0.00004684,0.00023391,-
 0.00043725,-0.04934974,0.00728844,-0.02280928,0.06670279,0.00810019,-0
 .03405109,-0.20931003,0.02135312,-0.07066602,0.67134278,-0.00020007,0.
 00070002,-0.00064498,-0.00021374,-0.00024619,-0.00010712,-0.00009931,0
 .00043323,0.00002347,-0.00000450,0.00004538,0.00007717,0.00002780,-0.0
 0001423,-0.00000521,0.00004944,0.00002975,-0.00002224,0.00016723,-0.00
 008037,0.00005521,-0.00062178,0.00397332,0.00269817,0.01573695,0.00051
 700,0.00471031,-0.01199985,-0.07013364,0.01120991,-0.00679629,0.007863
 18,-0.00734479,-0.00038882,0.00350881,0.00199277,0.00854373,-0.0047759
 3,0.00434835,-0.00697716,0.00419418,0.01838405,0.04135386,-0.08116353,
 0.06125542,-0.00824465,0.18027567,-0.00030725,-0.00102917,-0.00057202,
 -0.00053446,-0.00007993,-0.00034373,0.00040836,-0.00013937,0.00018152,
 0.00009345,0.00002664,0.00006197,-0.00010916,0.00009649,-0.00002504,-0
 .00006119,-0.00007280,0.00001470,-0.00036404,0.00051361,-0.00000948,-0
 .00457957,0.00337121,-0.00305415,-0.04936808,0.00436250,-0.01229406,0.
 05528251,0.01017359,-0.10972236,0.02825643,-0.00681593,0.02797141,0.00
 263645,0.00204836,-0.00386273,-0.02994161,0.00481478,-0.01808764,0.023
 25612,0.01771915,-0.05902825,-0.14475700,0.06231590,-0.28720750,0.0017
 5725,-0.16096690,0.73932355,-0.00219244,0.00223463,-0.00286676,0.00559
 816,0.02206092,0.00433537,0.00009450,0.00063506,0.00129589,-0.06233677
 ,-0.04795978,-0.01706792,0.00131243,-0.02622583,-0.00531322,-0.0036239
 2,-0.00059225,-0.00402440,-0.00103481,0.00048214,0.00003097,-0.0003090
 4,0.00111846,0.00023096,0.00056579,0.00003419,0.00012417,-0.00000256,0
 .00001283,-0.00000718,-0.00001276,0.00001932,-0.00000242,0.00000824,0.
 00000305,0.00000512,-0.00001994,-0.00000443,-0.00000221,-0.00000636,0.
 00000379,-0.00002017,0.00000365,-0.00000249,-0.00000524,-0.00001099,-0
 .00001273,-0.00002543,0.06184746,0.00342004,-0.00047915,0.00040306,-0.
 00708699,-0.01462731,-0.00571504,-0.00093108,0.00097850,0.00027006,-0.
 04573408,-0.32763246,-0.06368396,0.00194119,-0.00247636,-0.00038588,-0
 .00099359,0.00151677,-0.00124773,0.00035230,0.00078521,0.00038037,-0.0
 0002673,-0.00064566,-0.00014629,-0.00016032,0.00008264,-0.00014796,-0.
 00004511,-0.00003661,0.00003663,0.00012965,-0.00000277,-0.00002727,-0.
 00007450,0.00000237,0.00001978,0.00002223,0.00000225,0.00000355,0.0000
 1433,-0.00000755,0.00003241,-0.00001554,0.00000147,0.00001986,-0.00001
 266,0.00000167,0.00004139,0.04944481,0.34237926,-0.00260784,0.00000133
 ,0.00503064,-0.00021068,0.00510864,0.00442471,0.00108604,0.00103734,-0
 .00240843,-0.01721165,-0.06458714,-0.05461659,-0.00043927,-0.01079925,
 0.00240849,-0.00402602,-0.00123878,0.00498357,-0.00009013,0.00051724,-
 0.00084255,-0.00015842,0.00021377,-0.00007903,0.00022221,0.00013608,0.
 00011442,0.00001114,-0.00007861,0.00000908,-0.00004619,-0.00001906,-0.
 00000087,0.00003074,0.00000108,-0.00002240,0.00000562,0.00000710,0.000
 00076,-0.00000121,-0.00000057,-0.00000457,0.00000329,-0.00000526,-0.00
 000092,-0.00000761,0.00000533,-0.00000325,0.02164599,0.06941382,0.0449
 7915,-0.00024542,-0.00083661,0.00000428,-0.00171921,-0.00191061,-0.003
 46441,-0.00108954,0.00033318,-0.00041811,-0.01313407,0.02023033,-0.003
 31466,-0.20425952,0.14199074,-0.04080384,0.00769379,-0.00613470,0.0004
 3622,0.00166469,-0.00125739,-0.00190936,-0.00000490,-0.00001455,0.0002
 6839,0.00007436,0.00000053,-0.00002290,-0.00000161,-0.00001220,0.00001
 440,-0.00000517,-0.00000816,0.00001504,-0.00000090,0.00000627,-0.00000
 716,-0.00000643,0.,0.00000428,-0.00000220,0.00000116,-0.00000322,0.000
 00705,0.00000180,-0.00000152,0.00001222,0.00000942,-0.00000244,0.00023
 487,-0.00031068,0.00167399,0.21056798,-0.00109187,-0.00026432,-0.00034
 520,-0.00162161,0.00069899,-0.00157077,-0.00047859,0.00013086,-0.00019
 123,-0.00907467,0.00951564,-0.00253117,0.14228230,-0.19392075,0.029233
 72,0.02280666,-0.01227614,0.00601982,-0.00179732,-0.00474648,-0.002339
 12,0.00023200,0.00015962,0.00018814,-0.00002760,-0.00002676,-0.0000107
 9,-0.00001147,-0.00000801,-0.00001693,0.00002067,-0.00000158,0.0000001
 4,-0.00000733,-0.00000125,0.00000144,0.00001039,0.00000179,-0.00000199
 ,0.00000507,-0.00000313,0.00001106,-0.00000380,0.00000029,0.00000474,-
 0.00000206,-0.00000228,0.00001604,-0.00001951,0.00043491,0.00073910,-0
 .15190987,0.20006895,0.00000393,-0.00021862,-0.00069456,-0.00359465,-0
 .00158740,0.00510151,-0.00046876,0.00017438,-0.00004853,-0.00777128,0.
 00836892,0.00243189,-0.04074172,0.02905717,-0.04786268,0.00484885,-0.0
 0475447,0.00514286,-0.00190410,-0.00222467,0.00518209,0.00015758,0.000
 06941,-0.00055514,0.00005580,-0.00001172,0.00002051,0.00001592,-0.0000
 2407,0.00002461,-0.00004598,0.00000859,0.00001126,0.00002954,0.0000030
 2,-0.00001277,0.00000800,-0.00000459,0.00000050,-0.00000227,0.00000113
 ,-0.00000644,0.00000568,0.00000201,0.00000465,-0.00000556,0.00000928,-
 0.00001021,0.00172160,0.00067690,-0.00355706,0.04609543,-0.03006229,0.
 03790164,0.00039578,0.00363293,-0.00216862,0.00037261,0.00057040,0.000
 40157,-0.00011610,-0.00009256,0.00019874,0.00216686,-0.00050747,-0.001
 65794,0.00028115,0.00211270,-0.00099293,-0.28096377,-0.07361753,-0.101
 53097,-0.01352256,-0.00965706,-0.00807799,-0.00090973,-0.00035009,-0.0
 0048846,-0.00027511,0.00016775,0.00007218,0.00009685,-0.00001653,0.000
 11551,-0.00008242,0.00000979,-0.00000231,0.00004081,0.00000672,-0.0000
 2616,0.00000110,0.00000002,0.00000121,-0.00001335,0.00000761,-0.000025
 44,0.00000691,-0.00000370,0.00000003,-0.00001511,0.00001136,-0.0000542
 0,-0.00010084,0.00009011,-0.00005643,-0.00003123,-0.00033457,0.0013727
 2,0.29249116,0.00290935,-0.00240824,-0.00050411,0.00083955,-0.00109821
 ,0.00020891,-0.00013965,0.00015086,0.00007221,-0.00006009,-0.00523698,
 -0.00180891,-0.02695077,-0.00212459,-0.01095297,-0.07404198,-0.0842594
 4,-0.03455071,0.01972895,0.01040452,0.00840853,0.00100801,0.00050114,0
 .00023415,0.00007340,-0.00017918,0.00023109,0.00006384,-0.00003055,-0.
 00006871,0.00002686,0.00000209,-0.00000568,-0.00001876,-0.00000728,0.0
 0001420,0.00000083,0.00000204,0.00000043,0.00000325,-0.00000227,0.0000
 0712,0.00000243,0.00000372,-0.00000041,0.00001011,-0.00000356,0.000030
 61,-0.00118658,-0.00020278,-0.00050601,0.00009689,0.00087857,0.0007520
 6,0.07823687,0.08309284,-0.00234939,-0.00031083,0.00692699,0.00041125,
 0.00019944,-0.00028553,0.00020202,0.00010545,-0.00060015,-0.00165166,-
 0.00195554,0.00548738,-0.00540542,-0.00005933,0.00171667,-0.10164531,-
 0.03435636,-0.08219359,-0.00333196,-0.00270592,0.00229561,-0.00025741,
 -0.00016227,0.00028047,-0.00001048,0.00006715,-0.00036279,0.00000425,0
 .00003600,-0.00001234,-0.00011491,-0.00000373,0.00001715,0.00004817,0.
 00000614,-0.00002543,0.00001453,-0.00000145,-0.00000264,-0.00000555,0.
 00000244,-0.00000723,0.00000708,0.00000070,-0.00000344,0.00001052,0.00
 000506,-0.00001810,-0.00023824,-0.00001091,0.00000541,0.00143198,0.000
 59244,-0.00319916,0.11114696,0.03783283,0.07398558,-0.00038746,-0.0273
 1868,-0.00622830,-0.00283449,0.00033051,-0.00294392,-0.00077500,-0.001
 24284,-0.00051175,-0.00114682,0.00013021,-0.00008198,-0.00211283,0.003
 33516,-0.00292350,0.00837342,0.02192649,0.00473695,-0.06137284,-0.0386
 7758,-0.01469965,0.00233770,-0.00003791,0.00195537,-0.00107663,0.00012
 871,-0.00014886,0.00026394,-0.00019976,0.00011982,0.00021037,0.0000497
 0,-0.00012052,-0.00012180,0.00001510,0.00000733,0.00007742,0.00000508,
 -0.00000331,0.00002257,-0.00001245,0.00004322,-0.00003593,-0.00000181,
 0.00006768,-0.00009158,-0.00001855,0.00005827,-0.00000787,-0.00002803,
 0.00017511,0.00024359,0.00102210,0.00021604,0.00017503,-0.00060491,0.0
 0173298,0.05824722,0.00253275,-0.00468206,-0.00063478,-0.00116875,0.00
 053666,-0.00107770,0.00004957,-0.00008813,0.00003288,0.00017599,0.0008
 5711,0.00030692,0.00366920,-0.00056573,0.00019475,-0.00636368,-0.01175
 646,-0.00489635,-0.04088380,-0.33223250,-0.06118396,0.00149953,0.00013
 941,0.00111406,-0.00020459,0.00018669,-0.00002674,0.00007183,0.0000077
 1,0.00007007,-0.00009147,0.00001620,0.00003911,0.00005950,0.00000264,-
 0.00004608,0.00001998,-0.00000900,0.00000412,-0.00000729,0.00000243,-0
 .00000952,0.00001463,-0.00000033,-0.00000023,-0.00000391,-0.00001682,-
 0.00001265,-0.00006159,-0.00005464,0.00004305,-0.00026777,-0.00063540,
 -0.00023304,-0.00026704,0.00052101,0.00071811,0.04122551,0.34777054,-0
 .00181938,-0.01138440,0.00236952,-0.00312311,-0.00057048,0.00386646,-0
 .00026679,-0.00038969,-0.00015477,-0.00000395,0.00027372,-0.00084663,-
 0.00290892,-0.00002175,0.00606001,0.00024723,0.00562436,0.00576592,-0.
 01472400,-0.06039522,-0.05260159,0.00182500,0.00024333,-0.00260746,0.0
 0011294,0.00013832,-0.00008213,0.00008681,-0.00010318,0.00004035,-0.00
 026887,0.00000352,0.00007731,0.00020626,0.00003743,-0.00013900,0.00012
 268,0.00001314,-0.00002014,0.00000038,-0.00000841,0.00001563,0.0000084
 5,0.00000033,0.00002160,-0.00003556,0.00001137,-0.00001549,0.00017930,
 0.00006476,-0.00042202,0.00000994,0.00026127,0.00012916,0.00178379,0.0
 0060266,-0.00399987,0.01854346,0.06560310,0.04255482,-0.00001219,-0.00
 001746,0.00001793,0.00000264,0.00001309,-0.00000470,0.00000149,0.00000
 010,-0.00000362,-0.00000989,-0.00000217,-0.00000269,-0.00000628,0.0000
 1039,0.00000123,-0.00000042,-0.00000124,0.00000362,-0.00002158,0.00000
 483,0.00000636,0.00056124,0.00007154,0.00007651,-0.00002723,0.00014164
 ,-0.00098473,-0.00162590,0.00082091,-0.00222945,0.00882080,0.00410928,
 -0.01603579,0.00064591,0.00018751,-0.00106229,-0.12139098,-0.02994654,
 0.11949868,-0.00709426,-0.00685421,0.02664640,-0.00536962,0.00045273,-
 0.00064068,-0.00064794,0.00025429,-0.00098329,0.00000040,0.00000075,-0
 .00000111,0.00000095,-0.00000031,-0.00000116,-0.00000020,0.00000068,-0
 .00000287,-0.00000027,-0.00000121,-0.00000975,0.12570609,-0.00000893,0
 .00001189,-0.00006387,0.00008016,0.00003911,0.00001580,-0.00003786,-0.
 00003880,-0.00002820,-0.00000280,-0.00000290,0.00000525,0.00000831,-0.
 00000955,-0.00000021,-0.00000346,-0.00000658,-0.00000907,0.00000194,-0
 .00001400,0.00000250,-0.00017301,0.00005279,0.00006454,0.00003371,-0.0
 0011012,0.00014142,0.00106769,0.00537707,0.00221922,-0.00401595,0.0024
 1257,0.00519143,-0.00035905,-0.00274853,-0.00088417,-0.02884143,-0.052
 98381,0.05950713,0.00054049,0.00440123,-0.00036902,0.00033603,0.006416
 75,0.00113240,0.00028716,-0.00082788,-0.00023884,0.00000088,-0.0000054
 2,0.00000535,-0.00000051,-0.00000077,0.00000137,0.00000026,-0.00000016
 ,0.00000118,-0.00000475,0.00000060,0.00000317,0.03119340,0.04239601,0.
 00003429,0.00006546,-0.00002941,-0.00008420,-0.00004218,-0.00005847,0.
 00005099,0.00002312,0.00002562,-0.00002882,-0.00000562,-0.00000420,-0.
 00002384,0.00003067,-0.00000277,0.00000567,0.00002048,0.00001127,-0.00
 000948,0.00003965,0.00002299,0.00028187,-0.00009701,0.00015259,0.00027
 540,0.00013154,-0.00089928,-0.00349071,0.00221219,-0.00139957,0.014311
 21,0.00477646,-0.01585042,0.00060982,-0.00106425,0.00069088,0.11733410
 ,0.05947454,-0.27025508,-0.00283848,0.00011887,0.00395978,-0.00028495,
 0.00127374,0.00183342,-0.00079065,-0.00034351,0.00038469,-0.00000140,0
 .00000669,-0.00000167,-0.00000031,0.00000154,-0.00000219,-0.00000649,0
 .00000178,-0.00000517,0.00000651,-0.00000292,-0.00001140,-0.12535134,-
 0.06533562,0.28121822,0.00000171,-0.00002392,0.00001462,-0.00000895,-0
 .00002135,-0.00000654,0.00000481,0.00001383,0.00000018,0.00000070,-0.0
 0000374,-0.00000005,-0.00000206,0.00000204,-0.00000045,0.00000788,0.00
 000141,0.00000009,0.00000973,0.00000807,-0.00000650,0.00006561,0.00003
 157,0.00004267,0.00014211,-0.00003308,-0.00003171,-0.00078317,-0.00017
 347,0.00071554,-0.00404035,-0.00012114,0.00118948,-0.00120339,0.000230
 60,-0.00068287,-0.01026165,0.00732039,-0.02622747,-0.14084851,0.035585
 79,-0.12511841,0.01167578,-0.00372020,0.01322625,-0.00059853,-0.000709
 19,0.00301712,0.00000006,0.00000059,0.00000047,-0.00000118,0.00000125,
 0.00000020,-0.00000169,-0.00000033,0.00000053,0.00000083,0.00000190,0.
 00000945,0.00090579,-0.00013913,0.00012042,0.14393169,-0.00002117,0.00
 002340,-0.00001299,0.00003741,0.00001344,0.00002774,-0.00002298,-0.000
 01683,-0.00001190,-0.00000302,0.00000086,-0.00000584,0.00000586,-0.000
 00802,0.00000032,-0.00000555,0.00000074,0.00000015,0.00000997,-0.00001
 377,0.00000449,-0.00004926,0.00001334,-0.00000798,0.00018160,-0.000576
 26,-0.00019222,-0.00029687,-0.00059584,-0.00021300,0.00008204,0.006332
 38,0.00140548,-0.00008689,0.00010102,0.00004453,-0.00096147,0.00403090
 ,0.00009275,0.03567728,-0.05394337,0.06004667,0.00445485,0.00271546,0.
 00468145,-0.00090646,0.00560675,0.00235119,0.00000146,-0.00000248,0.00
 000119,-0.00000007,-0.00000085,0.00000082,0.00000103,-0.00000015,0.000
 00021,-0.00000366,0.00000004,-0.00000236,-0.00007596,-0.00399807,-0.00
 117564,-0.03815397,0.04378401,0.00001117,-0.00000686,-0.00001071,-0.00
 000647,-0.00000517,0.00000047,-0.00000148,0.00000049,-0.00000297,-0.00
 001140,-0.00000640,-0.00000561,-0.00000672,0.00000805,-0.00000163,0.00
 000162,0.00000642,0.00000344,0.00000338,0.00001382,0.00000382,0.000038
 11,0.00002370,-0.00000935,-0.00023829,-0.00020465,0.00003165,0.0009763
 1,-0.00023176,0.00017894,0.00097491,0.00128464,0.00179479,0.00015081,-
 0.00000593,0.00009131,0.00424419,-0.00031596,0.00504692,-0.12544222,0.
 06011206,-0.25108089,-0.01687533,0.00510305,-0.01382403,0.00352256,0.0
 0244203,-0.00290160,0.00000059,0.00000102,0.00000047,-0.00000187,0.000
 00122,-0.00000056,-0.00000345,0.00000020,-0.00000109,0.00000290,-0.000
 00023,0.00000060,-0.00017604,-0.00121317,0.00020109,0.13359675,-0.0660
 3661,0.26064576,0.00012138,-0.00005131,0.00002246,-0.00009487,-0.00002
 619,-0.00004679,0.00003555,0.00004072,0.00002028,0.00000583,0.00000131
 ,0.00000220,-0.00001869,0.00002065,-0.00000439,0.00000744,0.00000262,0
 .00000569,-0.00002107,0.00004490,0.00000097,-0.00018032,-0.00000012,-0
 .00019804,-0.00075954,-0.00001021,0.00006385,0.00099730,0.00068441,-0.
 00231029,0.00081207,0.00001437,-0.00011739,-0.00006851,-0.00000311,-0.
 00001173,0.00060874,-0.00063432,0.00265587,-0.00828357,0.00110602,-0.0
 0334418,-0.34787849,0.00063843,0.01460605,-0.01093535,-0.00094376,0.00
 449309,-0.00000334,0.00000639,0.00000111,-0.00000228,0.00000311,-0.000
 00040,-0.00000798,0.00000178,-0.00000177,0.00001179,-0.00000085,0.0000
 0555,-0.00047825,0.00004803,-0.00014343,0.00058370,-0.00006934,-0.0000
 0385,0.36482586,0.00003299,-0.00001865,0.00005499,0.00007825,0.0000413
 6,0.00003232,-0.00003002,-0.00003170,-0.00001469,-0.00000954,-0.000004
 75,-0.00000705,0.00000341,-0.00000237,0.00000127,-0.00000230,-0.000003
 54,-0.00000206,-0.00000381,-0.00001641,-0.00000469,0.00010504,-0.00042
 319,-0.00005496,0.00031767,0.00044194,-0.00000083,0.00056236,0.0070470
 4,0.00292046,0.00008339,-0.00054861,0.00030185,-0.00003133,-0.00063038
 ,-0.00021491,-0.00046047,0.00566086,0.00276849,-0.00714158,0.00386909,
 -0.00005714,0.00054821,-0.04041844,0.00524390,0.00718361,0.00404634,-0
 .00074591,0.00000352,-0.00000297,0.00000091,-0.00000083,-0.00000043,-0
 .00000042,0.00000043,-0.00000091,0.00000039,-0.00000183,0.00000143,0.0
 0000039,-0.00032997,0.00010408,0.00000414,0.00005696,-0.00350271,-0.00
 119081,-0.00079607,0.02877840,0.00002055,-0.00009628,-0.00004823,-0.00
 001854,-0.00000360,-0.00000986,0.00001233,0.00002053,0.00000419,-0.000
 00403,-0.00000236,-0.00000056,-0.00000941,0.00001207,-0.00000202,-0.00
 000221,-0.00000350,0.00000334,-0.00002928,0.00003501,0.00000040,-0.000
 12483,0.00010577,-0.00021548,-0.00133393,-0.00007589,0.00018559,-0.001
 54309,0.00296340,-0.00313788,-0.00035289,0.00021430,-0.00127039,0.0000
 3706,-0.00022735,0.00013332,0.00222640,0.00274116,-0.00384563,0.026887
 16,-0.00054203,0.00431402,0.01509347,0.00519877,-0.05900192,-0.0262321
 5,-0.00009574,0.00603465,-0.00000079,0.00000220,0.00000083,-0.00000072
 ,0.00000106,-0.00000025,-0.00000435,0.00000177,-0.00000140,0.00000341,
 0.00000034,-0.00000118,0.00118130,-0.00002793,0.00007783,-0.00045372,-
 0.00118788,0.00055780,-0.01570619,-0.00766163,0.05584912,0.00025515,-0
 .00013668,0.00025410,0.00005030,0.00010079,0.00000154,-0.00003664,0.00
 005470,-0.00001503,0.00010541,0.00004039,0.00003888,0.00002857,-0.0000
 3790,0.00000682,0.00000129,-0.00006836,-0.00002733,-0.00007572,-0.0000
 6925,-0.00003229,-0.00088728,-0.00000805,-0.00049310,0.00323166,-0.000
 16878,0.00073588,-0.00952096,-0.00718543,0.02777743,-0.00405788,0.0004
 6850,-0.00119034,-0.00120144,-0.00023385,0.00100016,-0.00088845,0.0001
 8646,-0.00064863,-0.00126576,0.00096205,-0.00315216,0.01193442,0.00418
 315,-0.01600879,-0.11523135,-0.02892368,0.11182868,-0.00000391,-0.0000
 0308,0.00000087,0.00000416,-0.00000295,0.00000459,0.00001184,0.0000002
 8,0.00000467,-0.00000037,0.00000157,0.00001910,0.00003971,-0.00001116,
 0.00002381,0.00041907,0.00020517,-0.00075617,0.00072259,-0.00016808,0.
 00035447,0.11636561,0.00003329,0.00000242,-0.00004024,0.00020387,0.000
 14383,0.00010133,-0.00013767,-0.00015407,-0.00007479,-0.00007070,-0.00
 004240,-0.00002244,0.00000109,0.00000874,-0.00000187,-0.00001081,-0.00
 000082,-0.00000238,0.00000965,-0.00002680,0.00001485,-0.00039659,-0.00
 014201,-0.00015070,0.00069315,-0.00305724,-0.00093038,0.00123387,0.004
 68175,0.00061539,0.00002004,0.00478440,0.00118005,0.00006656,-0.000003
 63,0.00001289,0.00014020,-0.00076423,-0.00042504,0.00112083,0.00647249
 ,0.00240947,-0.00364229,0.00347242,0.00508285,-0.02980080,-0.05393086,
 0.06222003,0.00001013,-0.00000892,0.00000337,-0.00000636,-0.00000147,-
 0.00000377,-0.00000145,-0.00000249,-0.00000120,-0.00001581,-0.00000136
 ,-0.00000539,-0.00003208,-0.00046553,-0.00011413,-0.00015486,0.0000360
 1,0.00022082,-0.00007746,-0.00438549,-0.00137217,0.03081418,0.04338525
 ,-0.00001792,0.00001023,0.00005481,0.00017430,0.00014795,0.00010954,-0
 .00011028,-0.00011614,-0.00007277,-0.00002052,-0.00000455,-0.00001448,
 0.00001907,-0.00001555,0.00000346,-0.00001901,-0.00002352,-0.00001500,
 -0.00000287,-0.00003553,-0.00002173,-0.00025347,-0.00011506,0.00005912
 ,-0.00079767,-0.00073233,-0.00031130,-0.00311347,0.00068741,0.00217185
 ,0.00033097,0.00121392,0.00084195,-0.00034708,-0.00000974,0.00018912,-
 0.00073493,-0.00038983,0.00051815,-0.00350614,0.00248301,-0.00183643,0
 .01349345,0.00463199,-0.01304880,0.11397214,0.06230256,-0.27681686,0.0
 0000543,-0.00000745,0.00000181,-0.00000342,-0.00000226,-0.00000114,0.0
 0000303,-0.00000104,0.00000268,-0.00000726,-0.00000231,0.00000029,0.00
 005749,-0.00012065,-0.00005875,0.00059396,0.00018943,-0.00071862,0.000
 01134,-0.00137401,0.00037372,-0.11972715,-0.06871653,0.28858938\\-0.00
 000139,-0.00000020,0.,-0.00000395,-0.00000067,-0.00000059,0.00000122,0
 .00000221,0.00000082,-0.00000056,0.00000309,0.00000117,-0.00000329,-0.
 00000646,0.00000011,-0.00000038,0.00000308,0.00000132,-0.00000098,-0.0
 0000091,0.00000086,-0.00000020,-0.00000035,0.00000042,0.00000013,0.000
 00002,-0.00000082,-0.00000002,-0.00000005,0.00000046,0.00000251,0.0000
 0038,-0.00000056,-0.00000101,-0.00000148,0.00000098,0.00000030,-0.0000
 0052,-0.00000043,0.00000402,0.00000333,-0.00000252,-0.00000085,-0.0000
 0003,0.00000018,0.00000102,0.00000179,-0.00000056,-0.00000164,-0.00000
 608,-0.00000114,-0.00000026,-0.00000198,0.00000028,0.00000055,0.000000
 08,0.00000096,0.00000037,0.00000191,0.00000060,0.00000018,0.00000076,0
 .00000054,0.00000104,0.00000093,-0.00000024,0.00000240,0.00000128,-0.0
 0000058,0.00000080,-0.00000014,-0.00000128\\\@
 The archive entry for this job was punched.


 I SUPPOSE A BABY LLAMA HAS A MMAMA AND A PPOPA.
     -- RICHARD AMOUR
 Job cpu time:       0 days  0 hours 30 minutes 24.4 seconds.
 Elapsed time:       0 days  0 hours  2 minutes 56.4 seconds.
 File lengths (MBytes):  RWF=    479 Int=      0 D2E=      0 Chk=      8 Scr=      1
 Normal termination of Gaussian 16 at Fri Mar  6 17:34:38 2026.
