 Entering Gaussian System, Link 0=g16
 Initial command:
 /aplic/Gaussian/g16b01_iqtc09/g16/l1.exe "/scratch/2722436.1.iqtc09.q/Gau-23455.inp" -scrdir="/scratch/2722436.1.iqtc09.q/"
 Entering Link 1 = /aplic/Gaussian/g16b01_iqtc09/g16/l1.exe PID=     23456.
  
 Copyright (c) 1988-2017, Gaussian, Inc.  All Rights Reserved.
  
 This is part of the Gaussian(R) 16 program.  It is based on
 the Gaussian(R) 09 system (copyright 2009, Gaussian, Inc.),
 the Gaussian(R) 03 system (copyright 2003, Gaussian, Inc.),
 the Gaussian(R) 98 system (copyright 1998, Gaussian, Inc.),
 the Gaussian(R) 94 system (copyright 1995, Gaussian, Inc.),
 the Gaussian 92(TM) system (copyright 1992, Gaussian, Inc.),
 the Gaussian 90(TM) system (copyright 1990, Gaussian, Inc.),
 the Gaussian 88(TM) system (copyright 1988, Gaussian, Inc.),
 the Gaussian 86(TM) system (copyright 1986, Carnegie Mellon
 University), and the Gaussian 82(TM) system (copyright 1983,
 Carnegie Mellon University). Gaussian is a federally registered
 trademark of Gaussian, Inc.
  
 This software contains proprietary and confidential information,
 including trade secrets, belonging to Gaussian, Inc.
  
 This software is provided under written license and may be
 used, copied, transmitted, or stored only in accord with that
 written license.
  
 The following legend is applicable only to US Government
 contracts under FAR:
  
                    RESTRICTED RIGHTS LEGEND
  
 Use, reproduction and disclosure by the US Government is
 subject to restrictions as set forth in subparagraphs (a)
 and (c) of the Commercial Computer Software - Restricted
 Rights clause in FAR 52.227-19.
  
 Gaussian, Inc.
 340 Quinnipiac St., Bldg. 40, Wallingford CT 06492
  
  
 ---------------------------------------------------------------
 Warning -- This program may not be used in any manner that
 competes with the business of Gaussian, Inc. or will provide
 assistance to any competitor of Gaussian, Inc.  The licensee
 of this program is prohibited from giving any competitor of
 Gaussian, Inc. access to this program.  By using this program,
 the user acknowledges that Gaussian, Inc. is engaged in the
 business of creating and licensing software in the field of
 computational chemistry and represents and warrants to the
 licensee that it is not a competitor of Gaussian, Inc. and that
 it will not use this program in any manner prohibited above.
 ---------------------------------------------------------------
  

 Cite this work as:
 Gaussian 16, Revision B.01,
 M. J. Frisch, G. W. Trucks, H. B. Schlegel, G. E. Scuseria, 
 M. A. Robb, J. R. Cheeseman, G. Scalmani, V. Barone, 
 G. A. Petersson, H. Nakatsuji, X. Li, M. Caricato, A. V. Marenich, 
 J. Bloino, B. G. Janesko, R. Gomperts, B. Mennucci, H. P. Hratchian, 
 J. V. Ortiz, A. F. Izmaylov, J. L. Sonnenberg, D. Williams-Young, 
 F. Ding, F. Lipparini, F. Egidi, J. Goings, B. Peng, A. Petrone, 
 T. Henderson, D. Ranasinghe, V. G. Zakrzewski, J. Gao, N. Rega, 
 G. Zheng, W. Liang, M. Hada, M. Ehara, K. Toyota, R. Fukuda, 
 J. Hasegawa, M. Ishida, T. Nakajima, Y. Honda, O. Kitao, H. Nakai, 
 T. Vreven, K. Throssell, J. A. Montgomery, Jr., J. E. Peralta, 
 F. Ogliaro, M. J. Bearpark, J. J. Heyd, E. N. Brothers, K. N. Kudin, 
 V. N. Staroverov, T. A. Keith, R. Kobayashi, J. Normand, 
 K. Raghavachari, A. P. Rendell, J. C. Burant, S. S. Iyengar, 
 J. Tomasi, M. Cossi, J. M. Millam, M. Klene, C. Adamo, R. Cammi, 
 J. W. Ochterski, R. L. Martin, K. Morokuma, O. Farkas, 
 J. B. Foresman, and D. J. Fox, Gaussian, Inc., Wallingford CT, 2016.
 
 ******************************************
 Gaussian 16:  ES64L-G16RevB.01 20-Dec-2017
                22-Dec-2022 
 ******************************************
 %nprocs=8
 Will use up to    8 processors via shared memory.
 %mem=12gb
 %chk=ABITEM_opt2_HS.chk
 ----------------------------------------------------------------------
 #p nosymm scf=(maxconventionalcycles=200,xqc) UB3LYP IOp(3/76=10000015
 00) IOp(3/77=0720008500) IOp(3/78=0810010000) def2SVP opt=(RecalcFC=30
 ,cartesian,skipdihedral) EmpiricalDispersion=GD3BJ
 ----------------------------------------------------------------------
 1/10=7,18=10,26=3,38=1,71=30,156=2/1,3;
 2/12=2,15=1,17=6,18=5,29=2,40=1/2;
 3/5=43,7=101,11=2,25=1,30=1,71=2,74=-5,76=1000001500,77=720008500,78=810010000,116=2,124=41,140=1/1,2,3;
 4//1;
 5/5=2,8=3,13=1,38=5,85=200/2,8;
 8/6=4,10=90,11=11/1;
 11/6=1,8=1,9=11,15=111,16=1,31=1/1,2,10;
 10/6=1,31=1/2;
 6/7=2,8=2,9=2,10=2,28=1/1;
 7/7=1,10=1,25=1,30=1/1,2,3,16;
 1/10=7,18=10,26=3,71=30,156=2/3(3);
 2/15=1,29=1/2;
 7/7=1,9=1,25=1,30=1,44=-1/16;
 99/12=1/99;
 2/15=1,29=1/2;
 3/5=43,7=101,11=2,25=1,30=1,71=2,74=-5,76=1000001500,77=720008500,78=810010000,116=2,124=41,140=1/1,2,3;
 4/5=5,16=3,69=1/1;
 5/5=2,8=3,13=1,38=5,85=200/2,8;
 8/6=4,10=90,11=11/1;
 11/6=1,8=1,9=11,15=111,16=1,31=1/1,2,10;
 10/6=1,31=1/2;
 7/7=1,10=1,25=1,30=1/1,2,3,16;
 1/18=10,26=3,71=30,156=2/3(-8);
 2/15=1,29=1/2;
 6/7=2,8=2,9=2,10=2,19=2,28=1/1;
 7/7=1,9=1,25=1,30=1,44=-1/16;
 99/9=1,12=1/99;
 Leave Link    1 at Thu Dec 22 17:47:22 2022, MaxMem=  1610612736 cpu:               0.3 elap:               0.0
 (Enter /aplic/Gaussian/g16b01_iqtc09/g16/l101.exe)
 ----------
 Title Card
 ----------
 Symbolic Z-matrix:
 Charge =  0 Multiplicity = 5
 Fe                    3.73814   3.85153   13.53744 
 S                     1.85779   0.3653    16.12381 
 S                     7.82443   6.00053   13.49303 
 N                     4.3367    3.04436   11.63819 
 N                     1.60133   4.19405   12.93734 
 N                     3.26087   5.53498   14.75143 
 N                     3.84011   5.68582   12.02387 
 N                     3.22607   2.28077   14.58147 
 N                     5.71338   4.17302   13.92345 
 C                     4.32292   1.71745   11.39915 
 H                     3.85603   1.0977    12.18188 
 C                     4.87538   1.15935   10.24158 
 H                     4.84716   0.07086   10.09017 
 C                     5.45494   2.01614   9.29304 
 H                     5.89644   1.61528   8.36849 
 C                     5.45925   3.39616   9.54184 
 H                     5.89992   4.10158   8.82146 
 C                     4.89882   3.87989   10.73345 
 C                     4.92887   5.35051   11.09669 
 H                     5.90039   5.57615   11.59053 
 H                     4.89565   5.97095   10.16967 
 C                     0.56779   3.67635   13.63672 
 H                     0.7838    2.77111   14.22492 
 C                     0.13974   5.95478   12.16235 
 H                     0.01608   6.86692   11.55914 
 C                     1.38179   5.30725   12.19446 
 C                     2.543     5.74817   11.33541 
 H                     2.59175   5.04711   10.47504 
 H                     2.35497   6.76352   10.91406 
 C                     2.71022   5.40119   15.97605 
 H                     2.63633   4.36995   16.35821 
 C                     2.25833   6.49645   16.71815 
 H                     1.82271   6.3396    17.71523 
 C                     2.36922   7.78055   16.16016 
 H                     2.01638   8.6657    16.70981 
 C                     2.93665   7.91421   14.88493 
 H                     3.04274   8.90204   14.41193 
 C                     3.38395   6.7702    14.20772 
 C                     4.10491   6.85074   12.87919 
 H                     3.84701   7.80692   12.36562 
 H                     5.19907   6.88094   13.08741 
 C                     2.65607   1.452     15.24636 
 C                     6.63957   4.92155   13.77838 
 C                    -0.70958   4.24978   13.6382 
 H                    -1.51354   3.78156   14.22421 
 C                    -0.93032   5.42022   12.8968 
 H                    -1.91547   5.90966   12.89027 
 
 ITRead=  0  0  0  0  0  0  0  0  0  0  0  0  0  0  0  0  0  0  0  0
 ITRead=  0  0  0  0  0  0  0  0  0  0  0  0  0  0  0  0  0  0  0  0
 ITRead=  0  0  0  0  0  0  0
 MicOpt= -1 -1 -1 -1 -1 -1 -1 -1 -1 -1 -1 -1 -1 -1 -1 -1 -1 -1 -1 -1
 MicOpt= -1 -1 -1 -1 -1 -1 -1 -1 -1 -1 -1 -1 -1 -1 -1 -1 -1 -1 -1 -1
 MicOpt= -1 -1 -1 -1 -1 -1 -1
 NAtoms=     47 NQM=       47 NQMF=       0 NMMI=      0 NMMIF=      0
                NMic=       0 NMicF=      0.
                    Isotopes and Nuclear Properties:
 (Nuclear quadrupole moments (NQMom) in fm**2, nuclear magnetic moments (NMagM)
  in nuclear magnetons)

  Atom         1           2           3           4           5           6           7           8           9          10
 IAtWgt=          56          32          32          14          14          14          14          14          14          12
 AtmWgt=  55.9349393  31.9720718  31.9720718  14.0030740  14.0030740  14.0030740  14.0030740  14.0030740  14.0030740  12.0000000
 NucSpn=           0           0           0           2           2           2           2           2           2           0
 AtZEff=  -0.0000000  -0.0000000  -0.0000000  -0.0000000  -0.0000000  -0.0000000  -0.0000000  -0.0000000  -0.0000000  -0.0000000
 NQMom=    0.0000000   0.0000000   0.0000000   2.0440000   2.0440000   2.0440000   2.0440000   2.0440000   2.0440000   0.0000000
 NMagM=    0.0000000   0.0000000   0.0000000   0.4037610   0.4037610   0.4037610   0.4037610   0.4037610   0.4037610   0.0000000
 AtZNuc=  26.0000000  16.0000000  16.0000000   7.0000000   7.0000000   7.0000000   7.0000000   7.0000000   7.0000000   6.0000000

  Atom        11          12          13          14          15          16          17          18          19          20
 IAtWgt=           1          12           1          12           1          12           1          12          12           1
 AtmWgt=   1.0078250  12.0000000   1.0078250  12.0000000   1.0078250  12.0000000   1.0078250  12.0000000  12.0000000   1.0078250
 NucSpn=           1           0           1           0           1           0           1           0           0           1
 AtZEff=  -0.0000000  -0.0000000  -0.0000000  -0.0000000  -0.0000000  -0.0000000  -0.0000000  -0.0000000  -0.0000000  -0.0000000
 NQMom=    0.0000000   0.0000000   0.0000000   0.0000000   0.0000000   0.0000000   0.0000000   0.0000000   0.0000000   0.0000000
 NMagM=    2.7928460   0.0000000   2.7928460   0.0000000   2.7928460   0.0000000   2.7928460   0.0000000   0.0000000   2.7928460
 AtZNuc=   1.0000000   6.0000000   1.0000000   6.0000000   1.0000000   6.0000000   1.0000000   6.0000000   6.0000000   1.0000000

  Atom        21          22          23          24          25          26          27          28          29          30
 IAtWgt=           1          12           1          12           1          12          12           1           1          12
 AtmWgt=   1.0078250  12.0000000   1.0078250  12.0000000   1.0078250  12.0000000  12.0000000   1.0078250   1.0078250  12.0000000
 NucSpn=           1           0           1           0           1           0           0           1           1           0
 AtZEff=  -0.0000000  -0.0000000  -0.0000000  -0.0000000  -0.0000000  -0.0000000  -0.0000000  -0.0000000  -0.0000000  -0.0000000
 NQMom=    0.0000000   0.0000000   0.0000000   0.0000000   0.0000000   0.0000000   0.0000000   0.0000000   0.0000000   0.0000000
 NMagM=    2.7928460   0.0000000   2.7928460   0.0000000   2.7928460   0.0000000   0.0000000   2.7928460   2.7928460   0.0000000
 AtZNuc=   1.0000000   6.0000000   1.0000000   6.0000000   1.0000000   6.0000000   6.0000000   1.0000000   1.0000000   6.0000000

  Atom        31          32          33          34          35          36          37          38          39          40
 IAtWgt=           1          12           1          12           1          12           1          12          12           1
 AtmWgt=   1.0078250  12.0000000   1.0078250  12.0000000   1.0078250  12.0000000   1.0078250  12.0000000  12.0000000   1.0078250
 NucSpn=           1           0           1           0           1           0           1           0           0           1
 AtZEff=  -0.0000000  -0.0000000  -0.0000000  -0.0000000  -0.0000000  -0.0000000  -0.0000000  -0.0000000  -0.0000000  -0.0000000
 NQMom=    0.0000000   0.0000000   0.0000000   0.0000000   0.0000000   0.0000000   0.0000000   0.0000000   0.0000000   0.0000000
 NMagM=    2.7928460   0.0000000   2.7928460   0.0000000   2.7928460   0.0000000   2.7928460   0.0000000   0.0000000   2.7928460
 AtZNuc=   1.0000000   6.0000000   1.0000000   6.0000000   1.0000000   6.0000000   1.0000000   6.0000000   6.0000000   1.0000000

  Atom        41          42          43          44          45          46          47
 IAtWgt=           1          12          12          12           1          12           1
 AtmWgt=   1.0078250  12.0000000  12.0000000  12.0000000   1.0078250  12.0000000   1.0078250
 NucSpn=           1           0           0           0           1           0           1
 AtZEff=  -0.0000000  -0.0000000  -0.0000000  -0.0000000  -0.0000000  -0.0000000  -0.0000000
 NQMom=    0.0000000   0.0000000   0.0000000   0.0000000   0.0000000   0.0000000   0.0000000
 NMagM=    2.7928460   0.0000000   0.0000000   0.0000000   2.7928460   0.0000000   2.7928460
 AtZNuc=   1.0000000   6.0000000   6.0000000   6.0000000   1.0000000   6.0000000   1.0000000
 Leave Link  101 at Thu Dec 22 17:47:23 2022, MaxMem=  1610612736 cpu:               0.5 elap:               0.1
 (Enter /aplic/Gaussian/g16b01_iqtc09/g16/l103.exe)

 GradGradGradGradGradGradGradGradGradGradGradGradGradGradGradGradGradGrad
 Berny optimization.
 Initialization pass.
 No Z-matrix variables, so optimization will use Cartesian coordinates.
 Trust Radius=3.00D-01 FncErr=1.00D-07 GrdErr=1.00D-06 EigMax=2.50D+02 EigMin=1.00D-04
 Number of steps in this run=    151 maximum allowed number of steps=    282.
 Step   0 in ReCalcFC=30 IGetFC= 4 compute analytic Hessian.
 GradGradGradGradGradGradGradGradGradGradGradGradGradGradGradGradGradGrad

 Leave Link  103 at Thu Dec 22 17:47:23 2022, MaxMem=  1610612736 cpu:               0.2 elap:               0.0
 (Enter /aplic/Gaussian/g16b01_iqtc09/g16/l202.exe)
 ---------------------------------------------------------------------------------------------------
                            Z-MATRIX (ANGSTROMS AND DEGREES)
   CD    Cent   Atom    N1       Length/X        N2       Alpha/Y        N3        Beta/Z          J
 ---------------------------------------------------------------------------------------------------
      1      1  Fe       0   3.738143          3.851530         13.537435
      2      2  S        0   1.857789          0.365303         16.123808
      3      3  S        0   7.824434          6.000526         13.493029
      4      4  N        0   4.336698          3.044365         11.638192
      5      5  N        0   1.601327          4.194049         12.937335
      6      6  N        0   3.260869          5.534983         14.751426
      7      7  N        0   3.840105          5.685821         12.023868
      8      8  N        0   3.226071          2.280768         14.581470
      9      9  N        0   5.713384          4.173018         13.923451
     10     10  C        0   4.322917          1.717452         11.399147
     11     11  H        0   3.856032          1.097699         12.181878
     12     12  C        0   4.875377          1.159345         10.241575
     13     13  H        0   4.847155          0.070862         10.090173
     14     14  C        0   5.454936          2.016137          9.293045
     15     15  H        0   5.896444          1.615282          8.368494
     16     16  C        0   5.459253          3.396156          9.541838
     17     17  H        0   5.899918          4.101584          8.821458
     18     18  C        0   4.898819          3.879894         10.733447
     19     19  C        0   4.928873          5.350507         11.096690
     20     20  H        0   5.900388          5.576149         11.590528
     21     21  H        0   4.895652          5.970952         10.169669
     22     22  C        0   0.567793          3.676354         13.636724
     23     23  H        0   0.783804          2.771112         14.224922
     24     24  C        0   0.139739          5.954781         12.162350
     25     25  H        0   0.016079          6.866918         11.559139
     26     26  C        0   1.381785          5.307250         12.194457
     27     27  C        0   2.543004          5.748167         11.335412
     28     28  H        0   2.591746          5.047107         10.475040
     29     29  H        0   2.354972          6.763524         10.914064
     30     30  C        0   2.710217          5.401189         15.976053
     31     31  H        0   2.636327          4.369949         16.358213
     32     32  C        0   2.258327          6.496451         16.718153
     33     33  H        0   1.822709          6.339598         17.715225
     34     34  C        0   2.369224          7.780545         16.160159
     35     35  H        0   2.016375          8.665703         16.709811
     36     36  C        0   2.936647          7.914205         14.884934
     37     37  H        0   3.042741          8.902038         14.411928
     38     38  C        0   3.383949          6.770195         14.207716
     39     39  C        0   4.104906          6.850738         12.879188
     40     40  H        0   3.847008          7.806923         12.365618
     41     41  H        0   5.199070          6.880942         13.087413
     42     42  C        0   2.656069          1.451997         15.246359
     43     43  C        0   6.639572          4.921546         13.778383
     44     44  C        0  -0.709584          4.249775         13.638202
     45     45  H        0  -1.513543          3.781564         14.224209
     46     46  C        0  -0.930317          5.420222         12.896802
     47     47  H        0  -1.915471          5.909655         12.890266
 ---------------------------------------------------------------------------------------------------
                         Z-Matrix orientation:                         
 ---------------------------------------------------------------------
 Center     Atomic      Atomic             Coordinates (Angstroms)
 Number     Number       Type             X           Y           Z
 ---------------------------------------------------------------------
      1         26           0        3.738143    3.851530   13.537435
      2         16           0        1.857789    0.365303   16.123808
      3         16           0        7.824434    6.000526   13.493029
      4          7           0        4.336698    3.044365   11.638192
      5          7           0        1.601327    4.194049   12.937335
      6          7           0        3.260869    5.534983   14.751426
      7          7           0        3.840105    5.685821   12.023868
      8          7           0        3.226071    2.280768   14.581470
      9          7           0        5.713384    4.173018   13.923451
     10          6           0        4.322917    1.717452   11.399147
     11          1           0        3.856032    1.097699   12.181878
     12          6           0        4.875377    1.159345   10.241575
     13          1           0        4.847155    0.070862   10.090173
     14          6           0        5.454936    2.016137    9.293045
     15          1           0        5.896444    1.615282    8.368494
     16          6           0        5.459253    3.396156    9.541838
     17          1           0        5.899918    4.101584    8.821458
     18          6           0        4.898819    3.879894   10.733447
     19          6           0        4.928873    5.350507   11.096690
     20          1           0        5.900388    5.576149   11.590528
     21          1           0        4.895652    5.970952   10.169669
     22          6           0        0.567793    3.676354   13.636724
     23          1           0        0.783804    2.771112   14.224922
     24          6           0        0.139739    5.954781   12.162350
     25          1           0        0.016079    6.866918   11.559139
     26          6           0        1.381785    5.307250   12.194457
     27          6           0        2.543004    5.748167   11.335412
     28          1           0        2.591746    5.047107   10.475040
     29          1           0        2.354972    6.763524   10.914064
     30          6           0        2.710217    5.401189   15.976053
     31          1           0        2.636327    4.369949   16.358213
     32          6           0        2.258327    6.496451   16.718153
     33          1           0        1.822709    6.339598   17.715225
     34          6           0        2.369224    7.780545   16.160159
     35          1           0        2.016375    8.665703   16.709811
     36          6           0        2.936647    7.914205   14.884934
     37          1           0        3.042741    8.902038   14.411928
     38          6           0        3.383949    6.770195   14.207716
     39          6           0        4.104906    6.850738   12.879188
     40          1           0        3.847008    7.806923   12.365618
     41          1           0        5.199070    6.880942   13.087413
     42          6           0        2.656069    1.451997   15.246359
     43          6           0        6.639572    4.921546   13.778383
     44          6           0       -0.709584    4.249775   13.638202
     45          1           0       -1.513543    3.781564   14.224209
     46          6           0       -0.930317    5.420222   12.896802
     47          1           0       -1.915471    5.909655   12.890266
 ---------------------------------------------------------------------
                    Distance matrix (angstroms):
                    1          2          3          4          5
     1  Fe   0.000000
     2  S    4.730627   0.000000
     3  S    4.617134   8.618445   0.000000
     4  N    2.148699   5.783002   4.933924   0.000000
     5  N    2.245756   4.987853   6.503785   3.239105   0.000000
     6  N    2.129690   5.529707   4.756724   4.129505   2.800555
     7  N    2.380316   7.003356   4.258210   2.715261   2.841115
     8  N    1.954359   2.814251   6.013838   3.237199   3.000603
     9  N    2.038122   5.848579   2.825169   2.896814   4.228697
    10  C    3.077097   5.497962   5.915208   1.348344   3.988309
    11  H    3.071647   4.479753   6.442441   2.077533   3.904074
    12  C    4.404981   6.658604   6.534977   2.407076   5.214974
    13  H    5.235167   6.740012   7.456845   3.390966   5.970126
    14  C    4.932635   7.894558   6.255377   2.794177   5.733625
    15  H    6.031336   8.832784   7.014868   3.894356   6.780293
    16  C    4.374286   8.091906   5.290438   2.403869   5.200926
    17  H    5.193865   9.144557   5.397529   3.390481   5.952048
    18  C    3.034851   7.117317   4.546603   1.353755   3.978601
    19  C    3.101936   7.717236   3.814346   2.441759   3.974661
    20  H    3.382316   8.002884   2.738897   2.976126   4.712326
    21  H    4.144107   8.723743   4.429826   3.321732   4.655098
    22  C    3.176738   4.337365   7.621106   4.312561   1.351054
    23  H    3.219947   3.247634   7.780440   4.403282   2.085899
    24  C    4.388967   7.063081   7.799188   5.134173   2.415992
    25  H    5.182662   8.154698   8.090796   5.769394   3.399509
    26  C    3.078171   6.331605   6.608680   3.763189   1.356202
    27  C    3.142371   7.236952   5.710735   3.258767   2.422436
    28  H    3.481651   7.373368   6.115414   2.899785   2.787747
    29  H    4.156314   8.265946   6.094936   4.275949   3.356160
    30  C    3.066746   5.109659   5.716627   5.197797   3.452627
    31  H    3.072384   4.086350   6.146911   5.189126   3.578348
    32  C    4.393453   6.172897   6.452047   6.484021   4.475186
    33  H    5.226213   6.182721   7.345925   7.355884   5.242196
    34  C    4.918311   7.432947   6.327825   6.837437   4.882542
    35  H    6.017035   8.322571   7.154328   7.918627   5.865111
    36  C    4.354708   7.725585   5.430472   6.018041   4.406334
    37  H    5.172616   8.786950   5.668133   6.609105   5.139772
    38  C    3.015516   6.857347   4.563012   4.625148   3.380553
    39  C    3.092419   7.591967   3.864525   4.010271   3.650929
    40  H    4.126759   8.570805   4.511546   4.842613   4.292179
    41  H    3.393253   7.927005   2.798606   4.190853   4.492847
    42  C    3.138322   1.608748   7.104596   4.287076   3.736699
    43  C    3.101819   7.008981   1.627735   3.661619   5.159508
    44  C    4.466657   5.278140   8.712960   5.560397   2.415498
    45  H    5.296863   5.161898   9.625811   6.438654   3.395380
    46  C    4.966460   6.613570   8.794197   5.913564   2.813248
    47  H    6.051286   7.445342   9.758962   6.990507   3.913232
                    6          7          8          9         10
     6  N    0.000000
     7  N    2.792461   0.000000
     8  N    3.258836   4.302645   0.000000
     9  N    2.924948   3.066947   3.193795   0.000000
    10  C    5.190305   4.046151   3.412854   3.786200   0.000000
    11  H    5.162004   4.590870   2.748553   3.992546   1.102154
    12  C    6.487804   4.973665   4.776242   4.831221   1.398810
    13  H    7.355284   6.023379   5.261497   5.680850   2.167832
    14  C    6.854935   4.850944   5.745025   5.114645   2.409636
    15  H    7.940537   5.844619   6.795207   6.118257   3.416326
    16  C    6.045435   3.744954   5.623974   4.457200   2.749346
    17  H    6.647085   4.124084   6.606252   5.105902   3.849091
    18  C    4.643959   2.459153   4.490275   3.305384   2.334732
    19  C    4.021612   1.468847   4.946365   3.161094   3.695640
    20  H    4.118256   2.108217   5.192036   2.728787   4.173078
    21  H    4.884166   2.152564   5.989069   4.241713   4.464516
    22  C    3.456837   4.165008   3.147483   5.177451   4.790094
    23  H    3.748605   4.762472   2.516393   5.133905   4.649788
    24  C    4.076886   3.712711   5.373635   6.110783   6.003034
    25  H    4.742722   4.029161   6.361706   6.730999   6.715017
    26  C    3.181338   2.493141   4.273033   4.799860   4.708442
    27  C    3.497132   1.469806   4.798576   4.385242   4.406679
    28  H    4.355827   2.089312   4.991770   4.732884   3.864910
    29  H    4.129807   2.144465   5.856943   5.200583   5.437918
    30  C    1.349381   4.120368   3.456587   3.839348   6.092519
    31  H    2.080654   4.686912   2.805226   3.928756   5.871342
    32  C    2.407805   5.019507   4.824306   5.014591   7.442660
    33  H    3.391138   6.073620   5.316385   5.848844   8.216332
    34  C    2.796803   4.864182   5.785671   5.403751   7.952688
    35  H    3.896851   5.844976   6.838172   6.451038   9.044417
    36  C    2.404920   3.737329   5.649024   4.757226   7.243770
    37  H    3.391150   4.084443   6.625977   5.452942   7.895187
    38  C    1.355182   2.480552   4.507724   3.500343   5.856614
    39  C    2.439034   1.469260   4.955274   3.293611   5.346838
    40  H    3.346244   2.148468   5.986147   4.372124   6.184029
    41  H    2.887415   2.099102   5.223651   2.880335   5.502683
    42  C    4.157104   5.450840   1.205753   4.301304   4.201177
    43  C    3.569139   3.391085   4.389834   1.199651   4.614528
    44  C    4.319204   5.036663   4.500680   6.429757   6.062350
    45  H    5.113457   6.093377   4.984372   7.243767   6.804836
    46  C    4.584631   4.856901   5.474472   6.837272   6.599238
    47  H    5.513510   5.824723   6.516475   7.891946   7.662603
                   11         12         13         14         15
    11  H    0.000000
    12  C    2.192633   0.000000
    13  H    2.532183   1.099324   0.000000
    14  C    3.427153   1.403457   2.188357   0.000000
    15  H    4.355809   2.181488   2.539768   1.100186   0.000000
    16  C    3.850069   2.415340   3.425334   1.402273   2.177013
    17  H    4.949062   3.423914   4.354844   2.183917   2.527229
    18  C    3.305445   2.764756   3.863314   2.420251   3.422970
    19  C    4.518296   4.277841   5.375352   3.827258   4.725585
    20  H    4.958387   4.730590   5.802461   4.260345   5.105878
    21  H    5.373862   4.812187   5.900825   4.089233   4.818472
    22  C    4.424766   6.034704   6.624993   6.745964   7.771537
    23  H    4.051287   5.933449   6.395179   6.834682   7.859566
    24  C    6.115755   7.007985   7.814997   7.210905   8.146425
    25  H    6.958228   7.610857   8.466613   7.631934   8.505210
    26  C    4.882866   5.764031   6.622429   5.986666   6.975010
    27  C    4.905854   5.262483   6.252321   5.155449   6.093349
    28  H    4.484366   4.514883   5.477044   4.333791   5.209221
    29  H    5.996841   6.181546   7.188984   5.897047   6.747321
    30  C    5.850528   7.454220   8.223288   7.978387   9.075246
    31  H    5.443994   7.261858   7.915695   7.962511   9.058265
    32  C    7.230282   8.790888   9.587510   9.242497  10.333369
    33  H    7.888589   9.592145  10.324037  10.139946  11.237253
    34  C    7.918191   9.227715  10.120478   9.481945  10.543329
    35  H    9.008951  10.312971  11.211789  10.537972  11.590554
    36  C    7.390300   8.423039   9.389239   8.508714   9.534192
    37  H    8.157345   8.983301   9.996157   8.912759   9.887544
    38  C    6.041862   7.031093   7.998512   7.144512   8.184270
    39  C    5.800486   6.320014   7.368599   6.168984   7.139045
    40  H    6.711746   7.054034   8.125551   6.749766   7.649419
    41  H    6.005801   6.398456   7.448791   6.174870   7.105048
    42  C    3.310058   5.482594   5.770151   6.602565   7.604717
    43  C    4.991866   5.456698   6.351755   5.473849   6.383613
    44  C    5.735967   7.230465   7.805714   7.865802   8.851553
    45  H    6.340866   7.972183   8.445001   8.717386   9.689690
    46  C    6.488795   7.675375   8.358947   8.083707   9.032597
    47  H    7.547647   8.700381   9.362966   9.078677   9.995703
                   16         17         18         19         20
    16  C    0.000000
    17  H    1.100346   0.000000
    18  C    1.402862   2.169573   0.000000
    19  C    2.553107   2.771176   1.515108   0.000000
    20  H    3.023921   3.137211   2.148257   1.112938   0.000000
    21  H    2.709500   2.514112   2.165728   1.115985   1.784434
    22  C    6.385373   7.197164   5.218068   5.317291   6.019361
    23  H    6.646938   7.559246   5.509369   5.798337   6.402163
    24  C    6.458396   6.911987   5.384771   4.943337   5.801329
    25  H    6.763419   7.054185   5.783185   5.162258   6.024298
    26  C    5.226319   5.765785   4.067115   3.713327   4.566707
    27  C    4.153718   4.505560   3.066377   2.430533   3.371454
    28  H    3.437892   3.817375   2.598412   2.437348   3.531474
    29  H    4.781081   4.902200   3.849559   2.941927   3.799663
    30  C    7.278494   7.940491   5.881261   5.360335   5.425922
    31  H    7.441784   8.217404   6.082517   5.822447   5.902528
    32  C    8.447322   9.019665   7.045231   6.328179   6.356422
    33  H    9.417673  10.036505   8.016098   7.377775   7.397448
    34  C    8.518998   8.936279   7.145847   6.172164   6.181424
    35  H    9.539464   9.906523   8.181038   7.140049   7.130074
    36  C    7.438077   7.751309   6.112334   4.989219   5.010327
    37  H    7.737703   7.903238   6.496012   5.211686   5.214210
    38  C    6.120575   6.516392   4.766468   3.752437   3.822026
    39  C    4.990621   5.219683   3.749722   2.471217   2.551270
    40  H    5.479775   5.523137   4.380850   2.968937   3.129455
    41  H    4.978206   5.139493   3.825911   2.525513   2.105943
    42  C    6.646740   7.669565   5.593835   6.130560   6.395259
    43  C    4.654920   5.078438   3.658811   3.209669   2.400335
    44  C    7.454087   8.179762   6.326816   6.281966   7.045847
    45  H    8.407914   9.178864   7.301608   7.331281   8.069894
    46  C    7.495281   8.062217   6.405587   6.129875   6.956234
    47  H    8.480342   8.994700   7.430097   7.097507   7.930208
                   21         22         23         24         25
    21  H    0.000000
    22  C    6.001334   0.000000
    23  H    6.602374   1.100954   0.000000
    24  C    5.156525   2.747406   3.847697   0.000000
    25  H    5.152050   3.847135   4.946860   1.100522   0.000000
    26  C    4.109444   2.324336   3.303387   1.401073   2.168259
    27  C    2.635060   3.672861   4.506319   2.549941   2.772545
    28  H    2.500945   3.996448   4.744515   3.111788   3.334823
    29  H    2.763575   4.487483   5.419382   2.668247   2.428422
    30  C    6.230157   3.610747   3.700653   4.632294   5.377348
    31  H    6.779811   3.488038   3.246391   5.133216   6.010962
    32  C    7.079144   4.506224   4.718959   5.053431   5.637406
    33  H    8.155630   5.030095   5.098591   5.815057   6.437342
    34  C    6.748588   5.143662   5.599385   4.928133   5.247989
    35  H    7.637105   6.036212   6.514607   5.616962   5.810872
    36  C    5.463301   5.012871   5.614424   4.367436   4.548345
    37  H    5.479170   5.833874   6.536514   4.708964   4.630421
    38  C    4.385186   4.222395   4.770085   3.920883   4.285658
    39  C    2.956484   4.812665   5.429923   4.127850   4.296661
    40  H    3.048382   5.424994   6.180584   4.149168   4.026169
    41  H    3.071380   5.658609   6.138339   5.225930   5.403630
    42  C    7.156079   3.449578   2.507743   6.009833   7.063038
    43  C    4.143106   6.199764   6.254101   6.776944   7.251219
    44  C    6.812624   1.400181   2.181947   2.409675   3.420311
    45  H    7.893700   2.165218   2.509744   3.421619   4.354509
    46  C    6.456196   2.415138   3.423434   1.403636   2.185849
    47  H    7.334630   3.422197   4.349465   2.180777   2.533602
                   26         27         28         29         30
    26  C    0.000000
    27  C    1.510230   0.000000
    28  H    2.118508   1.110901   0.000000
    29  H    2.169616   1.115276   1.787426   0.000000
    30  C    4.009242   4.656598   5.513670   5.254131   0.000000
    31  H    4.448514   5.209292   5.922183   5.953748   1.102253
    32  C    4.758818   5.441955   6.417805   5.811034   1.398040
    33  H    5.633741   6.447529   7.394743   6.835116   2.166334
    34  C    4.776925   5.238219   6.312034   5.343786   2.410707
    35  H    5.663067   6.137876   7.231712   6.109306   3.417143
    36  C    4.056165   4.176815   5.271278   4.174952   2.749011
    37  H    4.538552   4.434139   5.528379   4.157081   3.848766
    38  C    3.194070   3.162572   4.186823   3.450649   2.335617
    39  C    3.204154   2.457325   3.364917   2.632791   3.692820
    40  H    3.514966   2.645794   3.573031   2.328489   4.484985
    41  H    4.224398   3.377480   4.121357   3.581358   4.090024
    42  C    5.079457   5.810797   5.974482   6.860886   4.016404
    43  C    5.504717   4.840793   5.226159   5.473116   4.527653
    44  C    2.752540   4.257622   4.641133   4.809508   4.299574
    45  H    3.851043   5.354274   5.701865   5.900386   4.851009
    46  C    2.419063   3.822230   4.290580   4.065567   4.768190
    47  H    3.423294   4.724579   5.185780   4.782379   5.583691
                   31         32         33         34         35
    31  H    0.000000
    32  C    2.189624   0.000000
    33  H    2.526455   1.099326   0.000000
    34  C    3.426767   1.404476   2.189346   0.000000
    35  H    4.354476   2.182720   2.541482   1.100057   0.000000
    36  C    3.849999   2.414712   3.425024   1.402153   2.177573
    37  H    4.949043   3.423569   4.355037   2.183503   2.527755
    38  C    3.308286   2.764825   3.863354   2.421262   3.423987
    39  C    4.518258   4.274696   5.371866   3.826474   4.725435
    40  H    5.405493   4.815164   5.905008   4.072233   4.791736
    41  H    4.854984   4.688078   5.754086   4.273065   5.141662
    42  C    3.122668   5.269810   5.538811   6.400612   7.388400
    43  C    4.794346   5.506168   6.380577   5.664151   6.632189
    44  C    4.313702   4.831371   5.234690   5.320307   6.030427
    45  H    4.703360   5.274218   5.464550   5.900477   6.518693
    46  C    5.079900   5.091998   5.625087   5.206495   5.809921
    47  H    5.925894   5.693649   6.118747   5.705352   6.135482
                   36         37         38         39         40
    36  C    0.000000
    37  H    1.100366   0.000000
    38  C    1.402663   2.168612   0.000000
    39  C    2.553196   2.772241   1.513688   0.000000
    40  H    2.680899   2.456320   2.163921   1.115596   0.000000
    41  H    3.068757   3.238661   2.135886   1.114210   1.790670
    42  C    6.478386   7.506591   5.467341   6.070340   7.078283
    43  C    4.887956   5.402119   3.768410   3.309813   4.256726
    44  C    5.317649   6.026786   4.840855   5.524529   5.919063
    45  H    6.108966   6.856691   5.737387   6.541856   6.956535
    46  C    5.012587   5.495802   4.706784   5.234516   5.366687
    47  H    5.616046   5.987794   5.528115   6.093496   6.089421
                   41         42         43         44         45
    41  H    0.000000
    42  C    6.371919   0.000000
    43  C    2.528185   5.482793   0.000000
    44  C    6.491425   4.662762   7.381126   0.000000
    45  H    7.480483   4.884397   8.244489   1.099534   0.000000
    46  C    6.303921   5.842037   7.637348   1.402977   2.188004
    47  H    7.183242   6.805944   8.657590   2.183752   2.543565
                   46         47
    46  C    0.000000
    47  H    1.100053   0.000000
 Symmetry turned off by external request.
 Stoichiometry    C20H18FeN6S2(5)
 Framework group  C1[X(C20H18FeN6S2)]
 Deg. of freedom   135
 Full point group                 C1      NOp   1
 Rotational constants (GHZ):           0.1621525           0.1388519           0.1169200
 Leave Link  202 at Thu Dec 22 17:47:23 2022, MaxMem=  1610612736 cpu:               0.2 elap:               0.0
 (Enter /aplic/Gaussian/g16b01_iqtc09/g16/l301.exe)
 Standard basis: def2SVP (5D, 7F)
 Ernie: Thresh=  0.10000D-02 Tol=  0.10000D-05 Strict=F.
   521 basis functions,   931 primitive gaussians,   554 cartesian basis functions
   121 alpha electrons      117 beta electrons
       nuclear repulsion energy      3713.1456922314 Hartrees.
 IExCor=  402 DFT=T Ex+Corr=B3LYP ExCW=0 ScaHFX=  0.150000
 ScaDFX=  0.850000  0.720000  1.000000  0.810000 ScalE2=  1.000000  1.000000
 IRadAn=      5 IRanWt=     -1 IRanGd=            0 ICorTp=0 IEmpDi=141
 NAtoms=   47 NActive=   47 NUniq=   47 SFac= 1.00D+00 NAtFMM=   60 NAOKFM=F Big=F
 Integral buffers will be    131072 words long.
 Raffenetti 2 integral format.
 Two-electron integral symmetry is turned off.
 R6Disp:  Grimme-D3(BJ) Dispersion energy=       -0.1421156297 Hartrees.
 Nuclear repulsion after empirical dispersion term =     3713.0035766017 Hartrees.
 Leave Link  301 at Thu Dec 22 17:47:23 2022, MaxMem=  1610612736 cpu:               0.2 elap:               0.0
 (Enter /aplic/Gaussian/g16b01_iqtc09/g16/l302.exe)
 NPDir=0 NMtPBC=     1 NCelOv=     1 NCel=       1 NClECP=     1 NCelD=      1
         NCelK=      1 NCelE2=     1 NClLst=     1 CellRange=     0.0.
 One-electron integrals computed using PRISM.
   1 Symmetry operations used in ECPInt.
 ECPInt:  NShTT=   28203 NPrTT=  109756 LenC2=   25526 LenP2D=   65831.
 LDataN:  DoStor=T MaxTD1= 6 Len=  172
 NBasis=   521 RedAO= T EigKep=  5.42D-04  NBF=   521
 NBsUse=   521 1.00D-06 EigRej= -1.00D+00 NBFU=   521
 Precomputing XC quadrature grid using
 IXCGrd= 4 IRadAn=           5 IRanWt=          -1 IRanGd=           0 AccXCQ= 0.00D+00.
 Generated NRdTot=       0 NPtTot=           0 NUsed=           0 NTot=          32
 NSgBfM=   544   544   544   544   544 MxSgAt=    47 MxSgA2=    47.
 Leave Link  302 at Thu Dec 22 17:47:24 2022, MaxMem=  1610612736 cpu:               8.3 elap:               1.2
 (Enter /aplic/Gaussian/g16b01_iqtc09/g16/l303.exe)
 DipDrv:  MaxL=1.
 Leave Link  303 at Thu Dec 22 17:47:24 2022, MaxMem=  1610612736 cpu:               1.0 elap:               0.2
 (Enter /aplic/Gaussian/g16b01_iqtc09/g16/l401.exe)
 ExpMin= 3.37D-02 ExpMax= 6.09D+04 ExpMxC= 9.15D+03 IAcc=3 IRadAn=         5 AccDes= 0.00D+00
 Harris functional with IExCor=  402 and IRadAn=       5 diagonalized for initial guess.
 HarFok:  IExCor=  402 AccDes= 0.00D+00 IRadAn=         5 IDoV= 1 UseB2=F ITyADJ=14
 ICtDFT=  3500011 ScaDFX=  1.000000  1.000000  1.000000  1.000000
 FoFCou: FMM=F IPFlag=           0 FMFlag=      100000 FMFlg1=           0
         NFxFlg=           0 DoJE=T BraDBF=F KetDBF=T FulRan=T
         wScrn=  0.000000 ICntrl=       500 IOpCl=  0 I1Cent=   200000004 NGrid=           0
         NMat0=    1 NMatS0=      1 NMatT0=    0 NMatD0=    1 NMtDS0=    0 NMtDT0=    0
 Symmetry not used in FoFCou.
 Harris En= -3160.32606847706    
 JPrj=0 DoOrth=F DoCkMO=F.
 Initial guess <Sx>= 0.0000 <Sy>= 0.0000 <Sz>= 2.0000 <S**2>= 6.0000 S= 2.0000
 Leave Link  401 at Thu Dec 22 17:47:30 2022, MaxMem=  1610612736 cpu:              42.6 elap:               5.6
 (Enter /aplic/Gaussian/g16b01_iqtc09/g16/l502.exe)
 Two-electron integral symmetry not used.
 UHF open shell SCF:
 Using DIIS extrapolation, IDIIS=  1040.
 NGot=  1610612736 LenX=  1609990079 LenY=  1609682609
 Requested convergence on RMS density matrix=1.00D-08 within 200 cycles.
 Requested convergence on MAX density matrix=1.00D-06.
 Requested convergence on             energy=1.00D-06.
 No special actions if energy rises.
 Fock matrices will be formed incrementally for  20 cycles.

 Cycle   1  Pass 1  IDiag  1:
 FoFJK:  IHMeth= 1 ICntrl=       0 DoSepK=F KAlg= 0 I1Cent=           0 FoldK=F
 IRaf= 840000000 NMat=       1 IRICut=       1 DoRegI=T DoRafI=F ISym2E= 0 IDoP0=0 IntGTp=1.
 FoFCou: FMM=F IPFlag=           0 FMFlag=      100000 FMFlg1=           0
         NFxFlg=           0 DoJE=F BraDBF=F KetDBF=F FulRan=T
         wScrn=  0.000000 ICntrl=         0 IOpCl=  1 I1Cent=           0 NGrid=           0
         NMat0=    1 NMatS0=      1 NMatT0=    0 NMatD0=    1 NMtDS0=    0 NMtDT0=    0
 Symmetry not used in FoFCou.
 E= -3159.06041304926    
 DIIS: error= 2.10D-02 at cycle   1 NSaved=   1.
 NSaved= 1 IEnMin= 1 EnMin= -3159.06041304926     IErMin= 1 ErrMin= 2.10D-02
 ErrMax= 2.10D-02  0.00D+00 EMaxC= 1.00D-01 BMatC= 2.06D+00 BMatP= 2.06D+00
 IDIUse=3 WtCom= 7.90D-01 WtEn= 2.10D-01
 Coeff-Com:  0.100D+01
 Coeff-En:   0.100D+01
 Coeff:      0.100D+01
 Gap=     0.176 Goal=   None    Shift=    0.000
 Gap=     0.081 Goal=   None    Shift=    0.000
 GapD=    0.081 DampG=0.500 DampE=0.250 DampFc=0.1250 IDamp=-1.
 Damping current iteration by 1.25D-01
 RMSDP=4.31D-03 MaxDP=4.55D-01              OVMax= 7.73D-01

 Cycle   2  Pass 1  IDiag  1:
 RMSU=  5.31D-04    CP:  9.95D-01
 E= -3159.16109804140     Delta-E=       -0.100684992139 Rises=F Damp=T
 DIIS: error= 1.62D-02 at cycle   2 NSaved=   2.
 NSaved= 2 IEnMin= 2 EnMin= -3159.16109804140     IErMin= 2 ErrMin= 1.62D-02
 ErrMax= 1.62D-02  0.00D+00 EMaxC= 1.00D-01 BMatC= 8.33D-01 BMatP= 2.06D+00
 IDIUse=3 WtCom= 8.38D-01 WtEn= 1.62D-01
 Coeff-Com: -0.654D+00 0.165D+01
 Coeff-En:   0.000D+00 0.100D+01
 Coeff:     -0.548D+00 0.155D+01
 Gap=     0.211 Goal=   None    Shift=    0.000
 Gap=    -0.117 Goal=   None    Shift=    0.000
 RMSDP=3.67D-03 MaxDP=2.87D-01 DE=-1.01D-01 OVMax= 9.15D-01

 Cycle   3  Pass 1  IDiag  1:
 RMSU=  3.58D-03    CP:  9.69D-01  2.32D+00
 E= -3156.68617538125     Delta-E=        2.474922660145 Rises=F Damp=F
 DIIS: error= 8.52D-02 at cycle   3 NSaved=   3.
 NSaved= 3 IEnMin= 2 EnMin= -3159.16109804140     IErMin= 2 ErrMin= 1.62D-02
 ErrMax= 8.52D-02  0.00D+00 EMaxC= 1.00D-01 BMatC= 1.29D+01 BMatP= 8.33D-01
 IDIUse=2 WtCom= 0.00D+00 WtEn= 1.00D+00
 Coeff-En:   0.000D+00 0.916D+00 0.839D-01
 Coeff:      0.000D+00 0.916D+00 0.839D-01
 Gap=     0.242 Goal=   None    Shift=    0.000
 Gap=     0.054 Goal=   None    Shift=    0.000
 RMSDP=3.81D-03 MaxDP=4.18D-01 DE= 2.47D+00 OVMax= 7.50D-01

 Cycle   4  Pass 1  IDiag  1:
 RMSU=  1.75D-03    CP:  9.68D-01  3.00D+00  8.35D-02
 E= -3158.87595963931     Delta-E=       -2.189784258059 Rises=F Damp=F
 DIIS: error= 4.53D-02 at cycle   4 NSaved=   4.
 NSaved= 4 IEnMin= 2 EnMin= -3159.16109804140     IErMin= 2 ErrMin= 1.62D-02
 ErrMax= 4.53D-02  0.00D+00 EMaxC= 1.00D-01 BMatC= 3.59D+00 BMatP= 8.33D-01
 IDIUse=2 WtCom= 0.00D+00 WtEn= 1.00D+00
 EnCoef did   100 forward-backward iterations
 Coeff-En:   0.427D+00 0.191D-01 0.100D+00 0.454D+00
 Coeff:      0.427D+00 0.191D-01 0.100D+00 0.454D+00
 Gap=     0.078 Goal=   None    Shift=    0.000
 Gap=     0.127 Goal=   None    Shift=    0.000
 RMSDP=1.98D-03 MaxDP=1.89D-01 DE=-2.19D+00 OVMax= 3.60D-01

 Cycle   5  Pass 1  IDiag  1:
 RMSU=  1.34D-03    CP:  9.77D-01  2.20D+00  2.18D-01  4.36D-01
 E= -3159.53253055233     Delta-E=       -0.656570913018 Rises=F Damp=F
 DIIS: error= 1.21D-02 at cycle   5 NSaved=   5.
 NSaved= 5 IEnMin= 5 EnMin= -3159.53253055233     IErMin= 5 ErrMin= 1.21D-02
 ErrMax= 1.21D-02  0.00D+00 EMaxC= 1.00D-01 BMatC= 3.85D-01 BMatP= 8.33D-01
 IDIUse=3 WtCom= 8.79D-01 WtEn= 1.21D-01
 Coeff-Com: -0.256D+00 0.491D+00-0.217D-02 0.130D+00 0.637D+00
 Coeff-En:   0.000D+00 0.000D+00 0.000D+00 0.153D+00 0.847D+00
 Coeff:     -0.225D+00 0.432D+00-0.191D-02 0.132D+00 0.662D+00
 Gap=     0.106 Goal=   None    Shift=    0.000
 Gap=     0.087 Goal=   None    Shift=    0.000
 RMSDP=1.06D-03 MaxDP=6.27D-02 DE=-6.57D-01 OVMax= 2.09D-01

 Cycle   6  Pass 1  IDiag  1:
 RMSU=  8.03D-04    CP:  9.76D-01  2.73D+00  1.28D-01  5.83D-01  6.39D-01
 E= -3159.58985216522     Delta-E=       -0.057321612895 Rises=F Damp=F
 DIIS: error= 4.87D-03 at cycle   6 NSaved=   6.
 NSaved= 6 IEnMin= 6 EnMin= -3159.58985216522     IErMin= 6 ErrMin= 4.87D-03
 ErrMax= 4.87D-03  0.00D+00 EMaxC= 1.00D-01 BMatC= 1.13D-01 BMatP= 3.85D-01
 IDIUse=3 WtCom= 9.51D-01 WtEn= 4.87D-02
 Coeff-Com: -0.396D+00 0.511D+00-0.521D-02-0.305D-01 0.447D+00 0.474D+00
 Coeff-En:   0.000D+00 0.000D+00 0.000D+00 0.000D+00 0.279D+00 0.721D+00
 Coeff:     -0.376D+00 0.486D+00-0.496D-02-0.290D-01 0.439D+00 0.486D+00
 Gap=     0.109 Goal=   None    Shift=    0.000
 Gap=     0.081 Goal=   None    Shift=    0.000
 RMSDP=4.73D-04 MaxDP=2.44D-02 DE=-5.73D-02 OVMax= 5.76D-02

 Cycle   7  Pass 1  IDiag  1:
 RMSU=  3.61D-04    CP:  9.75D-01  2.66D+00  1.38D-01  5.74D-01  7.64D-01
                    CP:  6.88D-01
 E= -3159.61648901368     Delta-E=       -0.026636848455 Rises=F Damp=F
 DIIS: error= 2.37D-03 at cycle   7 NSaved=   7.
 NSaved= 7 IEnMin= 7 EnMin= -3159.61648901368     IErMin= 7 ErrMin= 2.37D-03
 ErrMax= 2.37D-03  0.00D+00 EMaxC= 1.00D-01 BMatC= 1.87D-02 BMatP= 1.13D-01
 IDIUse=3 WtCom= 9.76D-01 WtEn= 2.37D-02
 Coeff-Com: -0.261D+00 0.316D+00-0.157D-02-0.431D-01 0.215D+00 0.330D+00
 Coeff-Com:  0.443D+00
 Coeff-En:   0.000D+00 0.000D+00 0.000D+00 0.000D+00 0.000D+00 0.117D+00
 Coeff-En:   0.883D+00
 Coeff:     -0.254D+00 0.309D+00-0.153D-02-0.421D-01 0.210D+00 0.325D+00
 Coeff:      0.453D+00
 Gap=     0.107 Goal=   None    Shift=    0.000
 Gap=     0.074 Goal=   None    Shift=    0.000
 RMSDP=2.32D-04 MaxDP=1.84D-02 DE=-2.66D-02 OVMax= 3.63D-02

 Cycle   8  Pass 1  IDiag  1:
 RMSU=  1.74D-04    CP:  9.75D-01  2.71D+00  1.34D-01  5.69D-01  8.10D-01
                    CP:  7.33D-01  6.31D-01
 E= -3159.62184775189     Delta-E=       -0.005358738207 Rises=F Damp=F
 DIIS: error= 1.20D-03 at cycle   8 NSaved=   8.
 NSaved= 8 IEnMin= 8 EnMin= -3159.62184775189     IErMin= 8 ErrMin= 1.20D-03
 ErrMax= 1.20D-03  0.00D+00 EMaxC= 1.00D-01 BMatC= 3.41D-03 BMatP= 1.87D-02
 IDIUse=3 WtCom= 9.88D-01 WtEn= 1.20D-02
 Coeff-Com: -0.136D+00 0.161D+00 0.302D-02-0.267D-01 0.548D-01 0.862D-01
 Coeff-Com:  0.264D+00 0.594D+00
 Coeff-En:   0.000D+00 0.000D+00 0.000D+00 0.000D+00 0.000D+00 0.000D+00
 Coeff-En:   0.347D-01 0.965D+00
 Coeff:     -0.134D+00 0.159D+00 0.298D-02-0.263D-01 0.542D-01 0.851D-01
 Coeff:      0.261D+00 0.598D+00
 Gap=     0.102 Goal=   None    Shift=    0.000
 Gap=     0.073 Goal=   None    Shift=    0.000
 RMSDP=7.72D-05 MaxDP=6.64D-03 DE=-5.36D-03 OVMax= 9.78D-03

 Cycle   9  Pass 1  IDiag  1:
 RMSU=  6.91D-05    CP:  9.75D-01  2.73D+00  1.33D-01  5.74D-01  8.19D-01
                    CP:  7.49D-01  6.91D-01  1.07D+00
 E= -3159.62245046558     Delta-E=       -0.000602713697 Rises=F Damp=F
 DIIS: error= 7.59D-04 at cycle   9 NSaved=   9.
 NSaved= 9 IEnMin= 9 EnMin= -3159.62245046558     IErMin= 9 ErrMin= 7.59D-04
 ErrMax= 7.59D-04  0.00D+00 EMaxC= 1.00D-01 BMatC= 1.14D-03 BMatP= 3.41D-03
 IDIUse=3 WtCom= 9.92D-01 WtEn= 7.59D-03
 Coeff-Com: -0.144D-01 0.140D-01 0.202D-02-0.425D-02-0.269D-01-0.615D-01
 Coeff-Com:  0.406D-01 0.454D+00 0.596D+00
 Coeff-En:   0.000D+00 0.000D+00 0.000D+00 0.000D+00 0.000D+00 0.000D+00
 Coeff-En:   0.000D+00 0.189D+00 0.811D+00
 Coeff:     -0.143D-01 0.139D-01 0.200D-02-0.422D-02-0.267D-01-0.610D-01
 Coeff:      0.403D-01 0.452D+00 0.598D+00
 Gap=     0.101 Goal=   None    Shift=    0.000
 Gap=     0.072 Goal=   None    Shift=    0.000
 RMSDP=5.09D-05 MaxDP=3.18D-03 DE=-6.03D-04 OVMax= 7.14D-03

 Cycle  10  Pass 1  IDiag  1:
 RMSU=  3.01D-05    CP:  9.75D-01  2.75D+00  1.33D-01  5.74D-01  8.30D-01
                    CP:  7.46D-01  7.52D-01  1.22D+00  8.27D-01
 E= -3159.62274207283     Delta-E=       -0.000291607244 Rises=F Damp=F
 DIIS: error= 3.33D-04 at cycle  10 NSaved=  10.
 NSaved=10 IEnMin=10 EnMin= -3159.62274207283     IErMin=10 ErrMin= 3.33D-04
 ErrMax= 3.33D-04  0.00D+00 EMaxC= 1.00D-01 BMatC= 1.36D-04 BMatP= 1.14D-03
 IDIUse=3 WtCom= 9.97D-01 WtEn= 3.33D-03
 Coeff-Com:  0.108D-01-0.144D-01-0.307D-03 0.180D-02-0.152D-01-0.368D-01
 Coeff-Com: -0.132D-02 0.170D+00 0.325D+00 0.560D+00
 Coeff-En:   0.000D+00 0.000D+00 0.000D+00 0.000D+00 0.000D+00 0.000D+00
 Coeff-En:   0.000D+00 0.000D+00 0.000D+00 0.100D+01
 Coeff:      0.108D-01-0.143D-01-0.306D-03 0.179D-02-0.152D-01-0.367D-01
 Coeff:     -0.131D-02 0.170D+00 0.324D+00 0.562D+00
 Gap=     0.101 Goal=   None    Shift=    0.000
 Gap=     0.072 Goal=   None    Shift=    0.000
 RMSDP=1.73D-05 MaxDP=1.22D-03 DE=-2.92D-04 OVMax= 2.63D-03

 Cycle  11  Pass 1  IDiag  1:
 RMSU=  1.48D-05    CP:  9.75D-01  2.75D+00  1.33D-01  5.75D-01  8.32D-01
                    CP:  7.48D-01  7.59D-01  1.25D+00  8.81D-01  8.14D-01
 E= -3159.62277272621     Delta-E=       -0.000030653378 Rises=F Damp=F
 DIIS: error= 1.41D-04 at cycle  11 NSaved=  11.
 NSaved=11 IEnMin=11 EnMin= -3159.62277272621     IErMin=11 ErrMin= 1.41D-04
 ErrMax= 1.41D-04  0.00D+00 EMaxC= 1.00D-01 BMatC= 3.82D-05 BMatP= 1.36D-04
 IDIUse=3 WtCom= 9.99D-01 WtEn= 1.41D-03
 Coeff-Com:  0.682D-02-0.868D-02-0.263D-03 0.135D-02-0.799D-02-0.134D-01
 Coeff-Com:  0.577D-03 0.584D-01 0.123D+00 0.346D+00 0.494D+00
 Coeff-En:   0.000D+00 0.000D+00 0.000D+00 0.000D+00 0.000D+00 0.000D+00
 Coeff-En:   0.000D+00 0.000D+00 0.000D+00 0.139D+00 0.861D+00
 Coeff:      0.681D-02-0.867D-02-0.263D-03 0.135D-02-0.798D-02-0.134D-01
 Coeff:      0.577D-03 0.583D-01 0.123D+00 0.346D+00 0.494D+00
 Gap=     0.101 Goal=   None    Shift=    0.000
 Gap=     0.072 Goal=   None    Shift=    0.000
 RMSDP=8.87D-06 MaxDP=4.62D-04 DE=-3.07D-05 OVMax= 1.06D-03

 Cycle  12  Pass 1  IDiag  1:
 RMSU=  7.75D-06    CP:  9.75D-01  2.75D+00  1.33D-01  5.75D-01  8.32D-01
                    CP:  7.50D-01  7.60D-01  1.25D+00  8.79D-01  8.65D-01
                    CP:  7.60D-01
 E= -3159.62278115873     Delta-E=       -0.000008432519 Rises=F Damp=F
 DIIS: error= 7.84D-05 at cycle  12 NSaved=  12.
 NSaved=12 IEnMin=12 EnMin= -3159.62278115873     IErMin=12 ErrMin= 7.84D-05
 ErrMax= 7.84D-05  0.00D+00 EMaxC= 1.00D-01 BMatC= 1.04D-05 BMatP= 3.82D-05
 IDIUse=1 WtCom= 1.00D+00 WtEn= 0.00D+00
 Coeff-Com:  0.180D-02-0.201D-02-0.103D-03 0.641D-03-0.268D-02 0.290D-03
 Coeff-Com:  0.222D-02 0.188D-03 0.304D-02 0.818D-01 0.333D+00 0.582D+00
 Coeff:      0.180D-02-0.201D-02-0.103D-03 0.641D-03-0.268D-02 0.290D-03
 Coeff:      0.222D-02 0.188D-03 0.304D-02 0.818D-01 0.333D+00 0.582D+00
 Gap=     0.101 Goal=   None    Shift=    0.000
 Gap=     0.072 Goal=   None    Shift=    0.000
 RMSDP=5.72D-06 MaxDP=3.65D-04 DE=-8.43D-06 OVMax= 1.15D-03

 Cycle  13  Pass 1  IDiag  1:
 RMSU=  3.99D-06    CP:  9.75D-01  2.75D+00  1.33D-01  5.75D-01  8.30D-01
                    CP:  7.52D-01  7.62D-01  1.25D+00  8.73D-01  9.08D-01
                    CP:  9.31D-01  9.01D-01
 E= -3159.62278497192     Delta-E=       -0.000003813198 Rises=F Damp=F
 DIIS: error= 3.24D-05 at cycle  13 NSaved=  13.
 NSaved=13 IEnMin=13 EnMin= -3159.62278497192     IErMin=13 ErrMin= 3.24D-05
 ErrMax= 3.24D-05  0.00D+00 EMaxC= 1.00D-01 BMatC= 1.95D-06 BMatP= 1.04D-05
 IDIUse=1 WtCom= 1.00D+00 WtEn= 0.00D+00
 Coeff-Com:  0.186D-03-0.423D-04 0.131D-05 0.231D-03-0.798D-03 0.176D-02
 Coeff-Com:  0.118D-02-0.775D-02-0.169D-01-0.192D-01 0.746D-01 0.339D+00
 Coeff-Com:  0.627D+00
 Coeff:      0.186D-03-0.423D-04 0.131D-05 0.231D-03-0.798D-03 0.176D-02
 Coeff:      0.118D-02-0.775D-02-0.169D-01-0.192D-01 0.746D-01 0.339D+00
 Coeff:      0.627D+00
 Gap=     0.101 Goal=   None    Shift=    0.000
 Gap=     0.072 Goal=   None    Shift=    0.000
 RMSDP=3.23D-06 MaxDP=3.37D-04 DE=-3.81D-06 OVMax= 1.08D-03

 Cycle  14  Pass 1  IDiag  1:
 RMSU=  2.39D-06    CP:  9.75D-01  2.75D+00  1.33D-01  5.75D-01  8.30D-01
                    CP:  7.52D-01  7.63D-01  1.25D+00  8.79D-01  9.21D-01
                    CP:  1.00D+00  1.11D+00  1.07D+00
 E= -3159.62278587626     Delta-E=       -0.000000904332 Rises=F Damp=F
 DIIS: error= 1.99D-05 at cycle  14 NSaved=  14.
 NSaved=14 IEnMin=14 EnMin= -3159.62278587626     IErMin=14 ErrMin= 1.99D-05
 ErrMax= 1.99D-05  0.00D+00 EMaxC= 1.00D-01 BMatC= 1.16D-06 BMatP= 1.95D-06
 IDIUse=1 WtCom= 1.00D+00 WtEn= 0.00D+00
 Coeff-Com: -0.324D-03 0.506D-03 0.341D-05 0.275D-04 0.588D-03 0.846D-03
 Coeff-Com: -0.518D-03-0.565D-02-0.139D-01-0.591D-01-0.121D+00-0.175D-01
 Coeff-Com:  0.550D+00 0.666D+00
 Coeff:     -0.324D-03 0.506D-03 0.341D-05 0.275D-04 0.588D-03 0.846D-03
 Coeff:     -0.518D-03-0.565D-02-0.139D-01-0.591D-01-0.121D+00-0.175D-01
 Coeff:      0.550D+00 0.666D+00
 Gap=     0.101 Goal=   None    Shift=    0.000
 Gap=     0.072 Goal=   None    Shift=    0.000
 RMSDP=3.15D-06 MaxDP=4.00D-04 DE=-9.04D-07 OVMax= 1.32D-03

 Cycle  15  Pass 1  IDiag  1:
 RMSU=  1.59D-06    CP:  9.75D-01  2.75D+00  1.33D-01  5.75D-01  8.30D-01
                    CP:  7.53D-01  7.64D-01  1.25D+00  8.81D-01  9.46D-01
                    CP:  1.07D+00  1.31D+00  1.49D+00  1.18D+00
 E= -3159.62278671778     Delta-E=       -0.000000841520 Rises=F Damp=F
 DIIS: error= 1.25D-05 at cycle  15 NSaved=  15.
 NSaved=15 IEnMin=15 EnMin= -3159.62278671778     IErMin=15 ErrMin= 1.25D-05
 ErrMax= 1.25D-05  0.00D+00 EMaxC= 1.00D-01 BMatC= 1.78D-07 BMatP= 1.16D-06
 IDIUse=1 WtCom= 1.00D+00 WtEn= 0.00D+00
 Coeff-Com: -0.277D-03 0.360D-03 0.103D-05-0.242D-04 0.498D-03-0.122D-04
 Coeff-Com: -0.606D-03-0.148D-02-0.290D-02-0.228D-01-0.705D-01-0.943D-01
 Coeff-Com:  0.107D+00 0.287D+00 0.798D+00
 Coeff:     -0.277D-03 0.360D-03 0.103D-05-0.242D-04 0.498D-03-0.122D-04
 Coeff:     -0.606D-03-0.148D-02-0.290D-02-0.228D-01-0.705D-01-0.943D-01
 Coeff:      0.107D+00 0.287D+00 0.798D+00
 Gap=     0.101 Goal=   None    Shift=    0.000
 Gap=     0.072 Goal=   None    Shift=    0.000
 RMSDP=2.15D-06 MaxDP=3.97D-04 DE=-8.42D-07 OVMax= 1.06D-03

 Cycle  16  Pass 1  IDiag  1:
 RMSU=  8.92D-07    CP:  9.75D-01  2.75D+00  1.33D-01  5.75D-01  8.30D-01
                    CP:  7.53D-01  7.64D-01  1.25D+00  8.83D-01  9.57D-01
                    CP:  1.11D+00  1.41D+00  1.76D+00  1.60D+00  1.45D+00
 E= -3159.62278703860     Delta-E=       -0.000000320820 Rises=F Damp=F
 DIIS: error= 1.08D-05 at cycle  16 NSaved=  16.
 NSaved=16 IEnMin=16 EnMin= -3159.62278703860     IErMin=16 ErrMin= 1.08D-05
 ErrMax= 1.08D-05  0.00D+00 EMaxC= 1.00D-01 BMatC= 9.38D-08 BMatP= 1.78D-07
 IDIUse=1 WtCom= 1.00D+00 WtEn= 0.00D+00
 Coeff-Com: -0.367D-04 0.238D-04-0.128D-05-0.190D-04 0.843D-04-0.326D-03
 Coeff-Com: -0.238D-03 0.935D-03 0.306D-02 0.694D-02 0.237D-02-0.509D-01
 Coeff-Com: -0.130D+00-0.720D-01 0.475D+00 0.765D+00
 Coeff:     -0.367D-04 0.238D-04-0.128D-05-0.190D-04 0.843D-04-0.326D-03
 Coeff:     -0.238D-03 0.935D-03 0.306D-02 0.694D-02 0.237D-02-0.509D-01
 Coeff:     -0.130D+00-0.720D-01 0.475D+00 0.765D+00
 Gap=     0.101 Goal=   None    Shift=    0.000
 Gap=     0.072 Goal=   None    Shift=    0.000
 RMSDP=1.93D-06 MaxDP=4.27D-04 DE=-3.21D-07 OVMax= 1.02D-03

 Cycle  17  Pass 1  IDiag  1:
 RMSU=  5.91D-07    CP:  9.75D-01  2.75D+00  1.33D-01  5.75D-01  8.30D-01
                    CP:  7.53D-01  7.64D-01  1.25D+00  8.84D-01  9.66D-01
                    CP:  1.14D+00  1.48D+00  1.98D+00  1.95D+00  2.09D+00
                    CP:  1.66D+00
 E= -3159.62278726652     Delta-E=       -0.000000227923 Rises=F Damp=F
 DIIS: error= 9.50D-06 at cycle  17 NSaved=  17.
 NSaved=17 IEnMin=17 EnMin= -3159.62278726652     IErMin=17 ErrMin= 9.50D-06
 ErrMax= 9.50D-06  0.00D+00 EMaxC= 1.00D-01 BMatC= 5.12D-08 BMatP= 9.38D-08
 IDIUse=1 WtCom= 1.00D+00 WtEn= 0.00D+00
 Coeff-Com:  0.784D-04-0.118D-03 0.947D-06-0.103D-04-0.125D-03-0.162D-03
 Coeff-Com:  0.131D-03 0.114D-02 0.276D-02 0.119D-01 0.261D-01 0.797D-02
 Coeff-Com: -0.110D+00-0.146D+00-0.372D-01 0.412D+00 0.831D+00
 Coeff:      0.784D-04-0.118D-03 0.947D-06-0.103D-04-0.125D-03-0.162D-03
 Coeff:      0.131D-03 0.114D-02 0.276D-02 0.119D-01 0.261D-01 0.797D-02
 Coeff:     -0.110D+00-0.146D+00-0.372D-01 0.412D+00 0.831D+00
 Gap=     0.101 Goal=   None    Shift=    0.000
 Gap=     0.072 Goal=   None    Shift=    0.000
 RMSDP=1.85D-06 MaxDP=4.54D-04 DE=-2.28D-07 OVMax= 1.02D-03

 Cycle  18  Pass 1  IDiag  1:
 RMSU=  4.20D-07    CP:  9.75D-01  2.75D+00  1.33D-01  5.75D-01  8.30D-01
                    CP:  7.53D-01  7.64D-01  1.25D+00  8.85D-01  9.71D-01
                    CP:  1.16D+00  1.54D+00  2.14D+00  2.28D+00  2.74D+00
                    CP:  2.58D+00  1.65D+00
 E= -3159.62278745269     Delta-E=       -0.000000186168 Rises=F Damp=F
 DIIS: error= 8.57D-06 at cycle  18 NSaved=  18.
 NSaved=18 IEnMin=18 EnMin= -3159.62278745269     IErMin=18 ErrMin= 8.57D-06
 ErrMax= 8.57D-06  0.00D+00 EMaxC= 1.00D-01 BMatC= 3.88D-08 BMatP= 5.12D-08
 IDIUse=1 WtCom= 1.00D+00 WtEn= 0.00D+00
 Coeff-Com:  0.638D-04-0.890D-04 0.357D-06-0.103D-05-0.103D-03 0.152D-04
 Coeff-Com:  0.232D-03 0.613D-03 0.853D-03 0.545D-02 0.154D-01 0.240D-01
 Coeff-Com: -0.263D-01-0.695D-01-0.198D+00-0.224D-01 0.539D+00 0.731D+00
 Coeff:      0.638D-04-0.890D-04 0.357D-06-0.103D-05-0.103D-03 0.152D-04
 Coeff:      0.232D-03 0.613D-03 0.853D-03 0.545D-02 0.154D-01 0.240D-01
 Coeff:     -0.263D-01-0.695D-01-0.198D+00-0.224D-01 0.539D+00 0.731D+00
 Gap=     0.101 Goal=   None    Shift=    0.000
 Gap=     0.072 Goal=   None    Shift=    0.000
 RMSDP=1.63D-06 MaxDP=4.17D-04 DE=-1.86D-07 OVMax= 9.06D-04

 Cycle  19  Pass 1  IDiag  1:
 RMSU=  6.40D-07    CP:  9.75D-01  2.75D+00  1.33D-01  5.75D-01  8.30D-01
                    CP:  7.53D-01  7.64D-01  1.25D+00  8.86D-01  9.74D-01
                    CP:  1.17D+00  1.58D+00  2.27D+00  2.55D+00  3.00D+00
                    CP:  3.00D+00  2.61D+00  1.62D+00
 E= -3159.62278760218     Delta-E=       -0.000000149495 Rises=F Damp=F
 DIIS: error= 7.76D-06 at cycle  19 NSaved=  19.
 NSaved=19 IEnMin=19 EnMin= -3159.62278760218     IErMin=19 ErrMin= 7.76D-06
 ErrMax= 7.76D-06  0.00D+00 EMaxC= 1.00D-01 BMatC= 2.95D-08 BMatP= 3.88D-08
 IDIUse=1 WtCom= 1.00D+00 WtEn= 0.00D+00
 Coeff-Com:  0.169D-04-0.638D-05-0.260D-05 0.191D-04-0.128D-04 0.540D-04
 Coeff-Com:  0.971D-05-0.248D-03-0.145D-02-0.725D-02-0.159D-01 0.566D-02
 Coeff-Com:  0.850D-01 0.915D-01-0.931D-01-0.399D+00-0.401D+00 0.447D+00
 Coeff-Com:  0.129D+01
 Coeff:      0.169D-04-0.638D-05-0.260D-05 0.191D-04-0.128D-04 0.540D-04
 Coeff:      0.971D-05-0.248D-03-0.145D-02-0.725D-02-0.159D-01 0.566D-02
 Coeff:      0.850D-01 0.915D-01-0.931D-01-0.399D+00-0.401D+00 0.447D+00
 Coeff:      0.129D+01
 Gap=     0.101 Goal=   None    Shift=    0.000
 Gap=     0.072 Goal=   None    Shift=    0.000
 RMSDP=2.98D-06 MaxDP=7.80D-04 DE=-1.49D-07 OVMax= 1.67D-03

 Cycle  20  Pass 1  IDiag  1:
 RMSU=  1.30D-06    CP:  9.75D-01  2.75D+00  1.33D-01  5.75D-01  8.30D-01
                    CP:  7.53D-01  7.64D-01  1.25D+00  8.86D-01  9.80D-01
                    CP:  1.19D+00  1.65D+00  2.50D+00  3.00D+00  3.00D+00
                    CP:  3.00D+00  3.00D+00  3.00D+00  3.00D+00
 E= -3159.62278784469     Delta-E=       -0.000000242512 Rises=F Damp=F
 DIIS: error= 6.54D-06 at cycle  20 NSaved=  20.
 NSaved=20 IEnMin=20 EnMin= -3159.62278784469     IErMin=20 ErrMin= 6.54D-06
 ErrMax= 6.54D-06  0.00D+00 EMaxC= 1.00D-01 BMatC= 2.33D-08 BMatP= 2.95D-08
 IDIUse=1 WtCom= 1.00D+00 WtEn= 0.00D+00
 Coeff-Com:  0.123D-04 0.197D-04-0.699D-05 0.370D-04 0.741D-05-0.129D-03
 Coeff-Com: -0.325D-03-0.594D-03-0.114D-02-0.104D-01-0.275D-01-0.287D-01
 Coeff-Com:  0.762D-01 0.129D+00 0.181D+00-0.161D+00-0.812D+00-0.729D+00
 Coeff-Com:  0.734D+00 0.165D+01
 Coeff:      0.123D-04 0.197D-04-0.699D-05 0.370D-04 0.741D-05-0.129D-03
 Coeff:     -0.325D-03-0.594D-03-0.114D-02-0.104D-01-0.275D-01-0.287D-01
 Coeff:      0.762D-01 0.129D+00 0.181D+00-0.161D+00-0.812D+00-0.729D+00
 Coeff:      0.734D+00 0.165D+01
 Gap=     0.101 Goal=   None    Shift=    0.000
 Gap=     0.072 Goal=   None    Shift=    0.000
 RMSDP=5.15D-06 MaxDP=1.36D-03 DE=-2.43D-07 OVMax= 2.89D-03

 Cycle  21  Pass 1  IDiag  1:
 Restarting incremental Fock formation.
 E= -3159.62278817245     Delta-E=       -0.000000327754 Rises=F Damp=F
 DIIS: error= 4.51D-06 at cycle  21 NSaved=  20.
 NSaved=20 IEnMin=20 EnMin= -3159.62278817245     IErMin=20 ErrMin= 4.51D-06
 ErrMax= 4.51D-06  0.00D+00 EMaxC= 1.00D-01 BMatC= 1.58D-08 BMatP= 2.33D-08
 IDIUse=1 WtCom= 1.00D+00 WtEn= 0.00D+00
 Coeff-Com: -0.838D-05 0.222D-04 0.242D-04-0.648D-05-0.208D-03-0.221D-03
 Coeff-Com: -0.817D-04 0.107D-02-0.116D-02-0.893D-02-0.343D-01-0.276D-01
 Coeff-Com:  0.194D-01 0.275D+00 0.322D+00-0.301D+00-0.129D+01-0.777D+00
 Coeff-Com:  0.161D+01 0.121D+01
 Coeff:     -0.838D-05 0.222D-04 0.242D-04-0.648D-05-0.208D-03-0.221D-03
 Coeff:     -0.817D-04 0.107D-02-0.116D-02-0.893D-02-0.343D-01-0.276D-01
 Coeff:      0.194D-01 0.275D+00 0.322D+00-0.301D+00-0.129D+01-0.777D+00
 Coeff:      0.161D+01 0.121D+01
 Gap=     0.101 Goal=   None    Shift=    0.000
 Gap=     0.072 Goal=   None    Shift=    0.000
 RMSDP=6.98D-06 MaxDP=1.84D-03 DE=-3.28D-07 OVMax= 3.91D-03

 Cycle  22  Pass 1  IDiag  1:
 RMSU=  6.98D-06    CP:  1.00D+00
 E= -3159.62278843016     Delta-E=       -0.000000257713 Rises=F Damp=F
 DIIS: error= 1.77D-06 at cycle  22 NSaved=  20.
 NSaved=20 IEnMin=20 EnMin= -3159.62278843016     IErMin=20 ErrMin= 1.77D-06
 ErrMax= 1.77D-06  0.00D+00 EMaxC= 1.00D-01 BMatC= 7.59D-09 BMatP= 1.58D-08
 IDIUse=1 WtCom= 1.00D+00 WtEn= 0.00D+00
 Coeff-Com: -0.284D-04 0.252D-04 0.415D-04-0.521D-04 0.292D-04 0.101D-03
 Coeff-Com:  0.121D-02 0.365D-02 0.374D-02-0.149D-01-0.515D-01-0.352D-01
 Coeff-Com:  0.140D+00 0.308D+00 0.846D-01-0.691D+00-0.864D+00 0.547D+00
 Coeff-Com:  0.912D+00 0.656D+00
 Coeff:     -0.284D-04 0.252D-04 0.415D-04-0.521D-04 0.292D-04 0.101D-03
 Coeff:      0.121D-02 0.365D-02 0.374D-02-0.149D-01-0.515D-01-0.352D-01
 Coeff:      0.140D+00 0.308D+00 0.846D-01-0.691D+00-0.864D+00 0.547D+00
 Coeff:      0.912D+00 0.656D+00
 Gap=     0.101 Goal=   None    Shift=    0.000
 Gap=     0.072 Goal=   None    Shift=    0.000
 RMSDP=3.12D-06 MaxDP=8.16D-04 DE=-2.58D-07 OVMax= 1.75D-03

 Cycle  23  Pass 1  IDiag  1:
 RMSU=  1.83D-07    CP:  1.00D+00  1.45D+00
 E= -3159.62278847713     Delta-E=       -0.000000046965 Rises=F Damp=F
 DIIS: error= 9.57D-07 at cycle  23 NSaved=  20.
 NSaved=20 IEnMin=20 EnMin= -3159.62278847713     IErMin=20 ErrMin= 9.57D-07
 ErrMax= 9.57D-07  0.00D+00 EMaxC= 1.00D-01 BMatC= 1.78D-09 BMatP= 7.59D-09
 IDIUse=1 WtCom= 1.00D+00 WtEn= 0.00D+00
 Coeff-Com: -0.122D-05 0.183D-04-0.172D-04 0.621D-04 0.203D-03 0.512D-03
 Coeff-Com:  0.195D-02 0.334D-02-0.169D-02-0.226D-01-0.249D-01 0.215D-01
 Coeff-Com:  0.106D+00 0.116D+00-0.111D+00-0.314D+00-0.552D-01 0.232D+00
 Coeff-Com:  0.365D+00 0.682D+00
 Coeff:     -0.122D-05 0.183D-04-0.172D-04 0.621D-04 0.203D-03 0.512D-03
 Coeff:      0.195D-02 0.334D-02-0.169D-02-0.226D-01-0.249D-01 0.215D-01
 Coeff:      0.106D+00 0.116D+00-0.111D+00-0.314D+00-0.552D-01 0.232D+00
 Coeff:      0.365D+00 0.682D+00
 Gap=     0.101 Goal=   None    Shift=    0.000
 Gap=     0.072 Goal=   None    Shift=    0.000
 RMSDP=9.71D-07 MaxDP=2.54D-04 DE=-4.70D-08 OVMax= 5.42D-04

 Cycle  24  Pass 1  IDiag  1:
 RMSU=  1.07D-07    CP:  1.00D+00  1.58D+00  1.27D+00
 E= -3159.62278848346     Delta-E=       -0.000000006337 Rises=F Damp=F
 DIIS: error= 6.36D-07 at cycle  24 NSaved=  20.
 NSaved=20 IEnMin=20 EnMin= -3159.62278848346     IErMin=20 ErrMin= 6.36D-07
 ErrMax= 6.36D-07  0.00D+00 EMaxC= 1.00D-01 BMatC= 6.86D-10 BMatP= 1.78D-09
 IDIUse=1 WtCom= 1.00D+00 WtEn= 0.00D+00
 Coeff-Com: -0.342D-05-0.108D-04 0.206D-04 0.157D-03 0.555D-04-0.793D-04
 Coeff-Com:  0.103D-03 0.146D-02 0.124D-02-0.288D-02-0.185D-01-0.193D-01
 Coeff-Com:  0.291D-01 0.103D+00 0.641D-01-0.153D+00-0.118D+00 0.813D-02
 Coeff-Com:  0.358D+00 0.747D+00
 Coeff:     -0.342D-05-0.108D-04 0.206D-04 0.157D-03 0.555D-04-0.793D-04
 Coeff:      0.103D-03 0.146D-02 0.124D-02-0.288D-02-0.185D-01-0.193D-01
 Coeff:      0.291D-01 0.103D+00 0.641D-01-0.153D+00-0.118D+00 0.813D-02
 Coeff:      0.358D+00 0.747D+00
 Gap=     0.101 Goal=   None    Shift=    0.000
 Gap=     0.072 Goal=   None    Shift=    0.000
 RMSDP=3.66D-07 MaxDP=9.96D-05 DE=-6.34D-09 OVMax= 2.02D-04

 Cycle  25  Pass 1  IDiag  1:
 RMSU=  7.13D-08    CP:  1.00D+00  1.63D+00  1.57D+00  1.70D+00
 E= -3159.62278848518     Delta-E=       -0.000000001722 Rises=F Damp=F
 DIIS: error= 4.74D-07 at cycle  25 NSaved=  20.
 NSaved=20 IEnMin=20 EnMin= -3159.62278848518     IErMin=20 ErrMin= 4.74D-07
 ErrMax= 4.74D-07  0.00D+00 EMaxC= 1.00D-01 BMatC= 4.49D-10 BMatP= 6.86D-10
 IDIUse=1 WtCom= 1.00D+00 WtEn= 0.00D+00
 Coeff-Com:  0.118D-04-0.109D-04-0.440D-04-0.235D-03-0.868D-03-0.154D-02
 Coeff-Com:  0.518D-03 0.642D-02 0.467D-02-0.198D-01-0.366D-01 0.376D-02
 Coeff-Com:  0.107D+00 0.119D+00-0.104D+00-0.148D+00-0.983D-01 0.194D-02
 Coeff-Com:  0.465D+00 0.701D+00
 Coeff:      0.118D-04-0.109D-04-0.440D-04-0.235D-03-0.868D-03-0.154D-02
 Coeff:      0.518D-03 0.642D-02 0.467D-02-0.198D-01-0.366D-01 0.376D-02
 Coeff:      0.107D+00 0.119D+00-0.104D+00-0.148D+00-0.983D-01 0.194D-02
 Coeff:      0.465D+00 0.701D+00
 Gap=     0.101 Goal=   None    Shift=    0.000
 Gap=     0.072 Goal=   None    Shift=    0.000
 RMSDP=2.25D-07 MaxDP=5.76D-05 DE=-1.72D-09 OVMax= 1.22D-04

 Cycle  26  Pass 1  IDiag  1:
 RMSU=  4.27D-08    CP:  1.00D+00  1.66D+00  1.80D+00  2.47D+00  1.66D+00
 E= -3159.62278848630     Delta-E=       -0.000000001112 Rises=F Damp=F
 DIIS: error= 4.51D-07 at cycle  26 NSaved=  20.
 NSaved=20 IEnMin=20 EnMin= -3159.62278848630     IErMin=20 ErrMin= 4.51D-07
 ErrMax= 4.51D-07  0.00D+00 EMaxC= 1.00D-01 BMatC= 2.44D-10 BMatP= 4.49D-10
 IDIUse=1 WtCom= 1.00D+00 WtEn= 0.00D+00
 Coeff-Com: -0.182D-04-0.595D-04-0.400D-04-0.401D-03-0.136D-02-0.939D-03
 Coeff-Com:  0.541D-02 0.807D-02 0.290D-02-0.152D-01-0.375D-01-0.189D-01
 Coeff-Com:  0.496D-01 0.599D-01-0.183D-01-0.645D-01-0.185D+00-0.962D-01
 Coeff-Com:  0.364D+00 0.948D+00
 Coeff:     -0.182D-04-0.595D-04-0.400D-04-0.401D-03-0.136D-02-0.939D-03
 Coeff:      0.541D-02 0.807D-02 0.290D-02-0.152D-01-0.375D-01-0.189D-01
 Coeff:      0.496D-01 0.599D-01-0.183D-01-0.645D-01-0.185D+00-0.962D-01
 Coeff:      0.364D+00 0.948D+00
 Gap=     0.101 Goal=   None    Shift=    0.000
 Gap=     0.072 Goal=   None    Shift=    0.000
 RMSDP=1.54D-07 MaxDP=2.92D-05 DE=-1.11D-09 OVMax= 8.22D-05

 Cycle  27  Pass 1  IDiag  1:
 RMSU=  5.70D-08    CP:  1.00D+00  1.67D+00  2.09D+00  3.00D+00  2.58D+00
                    CP:  1.71D+00
 E= -3159.62278848717     Delta-E=       -0.000000000877 Rises=F Damp=F
 DIIS: error= 4.24D-07 at cycle  27 NSaved=  20.
 NSaved=20 IEnMin=20 EnMin= -3159.62278848717     IErMin=20 ErrMin= 4.24D-07
 ErrMax= 4.24D-07  0.00D+00 EMaxC= 1.00D-01 BMatC= 1.71D-10 BMatP= 2.44D-10
 IDIUse=1 WtCom= 1.00D+00 WtEn= 0.00D+00
 Coeff-Com: -0.297D-04 0.366D-04 0.755D-04-0.407D-04-0.106D-03 0.184D-02
 Coeff-Com:  0.343D-02 0.742D-02 0.588D-03-0.277D-01-0.506D-01-0.700D-02
 Coeff-Com:  0.818D-01 0.429D-01-0.136D-01-0.143D+00-0.252D+00-0.334D-01
 Coeff-Com:  0.617D+00 0.772D+00
 Coeff:     -0.297D-04 0.366D-04 0.755D-04-0.407D-04-0.106D-03 0.184D-02
 Coeff:      0.343D-02 0.742D-02 0.588D-03-0.277D-01-0.506D-01-0.700D-02
 Coeff:      0.818D-01 0.429D-01-0.136D-01-0.143D+00-0.252D+00-0.334D-01
 Coeff:      0.617D+00 0.772D+00
 Gap=     0.101 Goal=   None    Shift=    0.000
 Gap=     0.072 Goal=   None    Shift=    0.000
 RMSDP=1.35D-07 MaxDP=2.67D-05 DE=-8.77D-10 OVMax= 7.20D-05

 Cycle  28  Pass 1  IDiag  1:
 RMSU=  5.54D-08    CP:  1.00D+00  1.68D+00  2.33D+00  3.00D+00  3.00D+00
                    CP:  2.55D+00  2.49D+00
 E= -3159.62278848789     Delta-E=       -0.000000000719 Rises=F Damp=F
 DIIS: error= 3.91D-07 at cycle  28 NSaved=  20.
 NSaved=20 IEnMin=20 EnMin= -3159.62278848789     IErMin=20 ErrMin= 3.91D-07
 ErrMax= 3.91D-07  0.00D+00 EMaxC= 1.00D-01 BMatC= 1.21D-10 BMatP= 1.71D-10
 IDIUse=1 WtCom= 1.00D+00 WtEn= 0.00D+00
 Coeff-Com:  0.430D-05 0.200D-03 0.708D-03 0.332D-03-0.259D-02-0.326D-02
 Coeff-Com:  0.377D-02 0.897D-02 0.624D-02-0.119D-01-0.243D-01 0.112D-01
 Coeff-Com:  0.211D-01 0.963D-02 0.674D-03-0.104D+00-0.191D+00-0.288D+00
 Coeff-Com:  0.462D+00 0.110D+01
 Coeff:      0.430D-05 0.200D-03 0.708D-03 0.332D-03-0.259D-02-0.326D-02
 Coeff:      0.377D-02 0.897D-02 0.624D-02-0.119D-01-0.243D-01 0.112D-01
 Coeff:      0.211D-01 0.963D-02 0.674D-03-0.104D+00-0.191D+00-0.288D+00
 Coeff:      0.462D+00 0.110D+01
 Gap=     0.101 Goal=   None    Shift=    0.000
 Gap=     0.072 Goal=   None    Shift=    0.000
 RMSDP=1.97D-07 MaxDP=3.85D-05 DE=-7.19D-10 OVMax= 1.05D-04

 Cycle  29  Pass 1  IDiag  1:
 RMSU=  1.15D-07    CP:  1.00D+00  1.69D+00  2.67D+00  3.00D+00  3.00D+00
                    CP:  3.00D+00  3.00D+00  2.76D+00
 E= -3159.62278848885     Delta-E=       -0.000000000960 Rises=F Damp=F
 DIIS: error= 3.38D-07 at cycle  29 NSaved=  20.
 NSaved=20 IEnMin=20 EnMin= -3159.62278848885     IErMin=20 ErrMin= 3.38D-07
 ErrMax= 3.38D-07  0.00D+00 EMaxC= 1.00D-01 BMatC= 9.77D-11 BMatP= 1.21D-10
 IDIUse=1 WtCom= 1.00D+00 WtEn= 0.00D+00
 Coeff-Com:  0.219D-03 0.721D-03-0.423D-03-0.549D-02-0.573D-02 0.800D-02
 Coeff-Com:  0.212D-01 0.173D-01-0.195D-01-0.499D-01 0.185D-02 0.287D-01
 Coeff-Com:  0.294D-01 0.744D-01 0.281D-01-0.123D+00-0.616D+00-0.170D+00
 Coeff-Com:  0.852D+00 0.928D+00
 Coeff:      0.219D-03 0.721D-03-0.423D-03-0.549D-02-0.573D-02 0.800D-02
 Coeff:      0.212D-01 0.173D-01-0.195D-01-0.499D-01 0.185D-02 0.287D-01
 Coeff:      0.294D-01 0.744D-01 0.281D-01-0.123D+00-0.616D+00-0.170D+00
 Coeff:      0.852D+00 0.928D+00
 Gap=     0.101 Goal=   None    Shift=    0.000
 Gap=     0.072 Goal=   None    Shift=    0.000
 RMSDP=2.00D-07 MaxDP=3.86D-05 DE=-9.60D-10 OVMax= 1.07D-04

 Cycle  30  Pass 1  IDiag  1:
 RMSU=  9.02D-08    CP:  1.00D+00  1.69D+00  3.00D+00  3.00D+00  3.00D+00
                    CP:  3.00D+00  3.00D+00  3.00D+00  2.34D+00
 E= -3159.62278848975     Delta-E=       -0.000000000899 Rises=F Damp=F
 DIIS: error= 2.67D-07 at cycle  30 NSaved=  20.
 NSaved=20 IEnMin=20 EnMin= -3159.62278848975     IErMin=20 ErrMin= 2.67D-07
 ErrMax= 2.67D-07  0.00D+00 EMaxC= 1.00D-01 BMatC= 7.78D-11 BMatP= 9.77D-11
 IDIUse=1 WtCom= 1.00D+00 WtEn= 0.00D+00
 Coeff-Com:  0.301D-04-0.164D-03-0.188D-02-0.239D-02-0.295D-02 0.463D-03
 Coeff-Com:  0.111D-01 0.262D-01 0.138D-01-0.371D-01-0.397D-01-0.159D-01
 Coeff-Com:  0.688D-01 0.266D+00 0.241D+00-0.375D+00-0.899D+00-0.424D+00
 Coeff-Com:  0.891D+00 0.128D+01
 Coeff:      0.301D-04-0.164D-03-0.188D-02-0.239D-02-0.295D-02 0.463D-03
 Coeff:      0.111D-01 0.262D-01 0.138D-01-0.371D-01-0.397D-01-0.159D-01
 Coeff:      0.688D-01 0.266D+00 0.241D+00-0.375D+00-0.899D+00-0.424D+00
 Coeff:      0.891D+00 0.128D+01
 Gap=     0.101 Goal=   None    Shift=    0.000
 Gap=     0.072 Goal=   None    Shift=    0.000
 RMSDP=3.10D-07 MaxDP=5.80D-05 DE=-8.99D-10 OVMax= 1.65D-04

 Cycle  31  Pass 1  IDiag  1:
 RMSU=  1.92D-07    CP:  1.00D+00  1.70D+00  3.00D+00  3.00D+00  3.00D+00
                    CP:  3.00D+00  3.00D+00  3.00D+00  3.00D+00  2.69D+00
 E= -3159.62278849054     Delta-E=       -0.000000000783 Rises=F Damp=F
 DIIS: error= 1.69D-07 at cycle  31 NSaved=  20.
 NSaved=20 IEnMin=20 EnMin= -3159.62278849054     IErMin=20 ErrMin= 1.69D-07
 ErrMax= 1.69D-07  0.00D+00 EMaxC= 1.00D-01 BMatC= 4.39D-11 BMatP= 7.78D-11
 IDIUse=1 WtCom= 1.00D+00 WtEn= 0.00D+00
 Coeff-Com:  0.130D-03 0.473D-03 0.628D-03-0.168D-02-0.142D-02-0.420D-02
 Coeff-Com: -0.221D-02 0.863D-02 0.438D-02-0.116D-01-0.751D-02 0.139D-01
 Coeff-Com:  0.138D+00 0.197D+00 0.156D+00-0.482D+00-0.953D+00 0.541D-01
 Coeff-Com:  0.946D+00 0.945D+00
 Coeff:      0.130D-03 0.473D-03 0.628D-03-0.168D-02-0.142D-02-0.420D-02
 Coeff:     -0.221D-02 0.863D-02 0.438D-02-0.116D-01-0.751D-02 0.139D-01
 Coeff:      0.138D+00 0.197D+00 0.156D+00-0.482D+00-0.953D+00 0.541D-01
 Coeff:      0.946D+00 0.945D+00
 Gap=     0.101 Goal=   None    Shift=    0.000
 Gap=     0.072 Goal=   None    Shift=    0.000
 RMSDP=2.43D-07 MaxDP=4.41D-05 DE=-7.83D-10 OVMax= 1.29D-04

 Cycle  32  Pass 1  IDiag  1:
 RMSU=  9.95D-08    CP:  1.00D+00  1.71D+00  3.00D+00  3.00D+00  3.00D+00
                    CP:  3.00D+00  3.00D+00  3.00D+00  3.00D+00  3.00D+00
                    CP:  2.07D+00
 E= -3159.62278849110     Delta-E=       -0.000000000563 Rises=F Damp=F
 DIIS: error= 8.76D-08 at cycle  32 NSaved=  20.
 NSaved=20 IEnMin=20 EnMin= -3159.62278849110     IErMin=20 ErrMin= 8.76D-08
 ErrMax= 8.76D-08  0.00D+00 EMaxC= 1.00D-01 BMatC= 2.13D-11 BMatP= 4.39D-11
 IDIUse=1 WtCom= 1.00D+00 WtEn= 0.00D+00
 Coeff-Com:  0.159D-02 0.226D-02 0.210D-03-0.101D-02-0.108D-01-0.220D-01
 Coeff-Com: -0.240D-02 0.354D-01 0.198D-01-0.175D-02-0.704D-01-0.109D+00
 Coeff-Com:  0.254D-01 0.508D+00 0.213D+00-0.549D+00-0.530D+00-0.135D+00
 Coeff-Com:  0.698D+00 0.927D+00
 Coeff:      0.159D-02 0.226D-02 0.210D-03-0.101D-02-0.108D-01-0.220D-01
 Coeff:     -0.240D-02 0.354D-01 0.198D-01-0.175D-02-0.704D-01-0.109D+00
 Coeff:      0.254D-01 0.508D+00 0.213D+00-0.549D+00-0.530D+00-0.135D+00
 Coeff:      0.698D+00 0.927D+00
 Gap=     0.101 Goal=   None    Shift=    0.000
 Gap=     0.072 Goal=   None    Shift=    0.000
 RMSDP=1.77D-07 MaxDP=3.12D-05 DE=-5.63D-10 OVMax= 9.40D-05

 Cycle  33  Pass 1  IDiag  1:
 RMSU=  1.67D-08    CP:  1.00D+00  1.71D+00  3.00D+00  3.00D+00  3.00D+00
                    CP:  3.00D+00  3.00D+00  3.00D+00  3.00D+00  3.00D+00
                    CP:  2.84D+00  1.91D+00
 E= -3159.62278849114     Delta-E=       -0.000000000041 Rises=F Damp=F
 DIIS: error= 4.63D-08 at cycle  33 NSaved=  20.
 NSaved=20 IEnMin=20 EnMin= -3159.62278849114     IErMin=20 ErrMin= 4.63D-08
 ErrMax= 4.63D-08  0.00D+00 EMaxC= 1.00D-01 BMatC= 5.23D-12 BMatP= 2.13D-11
 IDIUse=1 WtCom= 1.00D+00 WtEn= 0.00D+00
 Coeff-Com:  0.105D-03 0.982D-03 0.105D-02 0.370D-04-0.319D-02-0.455D-02
 Coeff-Com:  0.324D-02 0.748D-02 0.629D-02-0.136D-01-0.735D-01-0.751D-01
 Coeff-Com:  0.870D-01 0.215D+00 0.135D+00-0.187D+00-0.339D+00-0.246D-01
 Coeff-Com:  0.338D+00 0.926D+00
 Coeff:      0.105D-03 0.982D-03 0.105D-02 0.370D-04-0.319D-02-0.455D-02
 Coeff:      0.324D-02 0.748D-02 0.629D-02-0.136D-01-0.735D-01-0.751D-01
 Coeff:      0.870D-01 0.215D+00 0.135D+00-0.187D+00-0.339D+00-0.246D-01
 Coeff:      0.338D+00 0.926D+00
 Gap=     0.101 Goal=   None    Shift=    0.000
 Gap=     0.072 Goal=   None    Shift=    0.000
 RMSDP=6.59D-08 MaxDP=1.13D-05 DE=-4.09D-11 OVMax= 3.49D-05

 Cycle  34  Pass 1  IDiag  1:
 RMSU=  2.48D-08    CP:  1.00D+00  1.71D+00  3.00D+00  3.00D+00  3.00D+00
                    CP:  3.00D+00  3.00D+00  3.00D+00  3.00D+00  3.00D+00
                    CP:  3.00D+00  2.25D+00  1.40D+00
 E= -3159.62278849127     Delta-E=       -0.000000000130 Rises=F Damp=F
 DIIS: error= 4.12D-08 at cycle  34 NSaved=  20.
 NSaved=20 IEnMin=20 EnMin= -3159.62278849127     IErMin=20 ErrMin= 4.12D-08
 ErrMax= 4.12D-08  0.00D+00 EMaxC= 1.00D-01 BMatC= 7.92D-12 BMatP= 5.23D-12
 IDIUse=1 WtCom= 1.00D+00 WtEn= 0.00D+00
 Coeff-Com:  0.137D-02 0.179D-02 0.524D-03-0.468D-02-0.719D-02 0.427D-02
 Coeff-Com:  0.103D-01 0.685D-02-0.167D-01-0.824D-01-0.901D-01 0.601D-01
 Coeff-Com:  0.240D+00 0.218D+00-0.147D+00-0.344D+00-0.136D+00 0.131D+00
 Coeff-Com:  0.736D+00 0.417D+00
 Coeff:      0.137D-02 0.179D-02 0.524D-03-0.468D-02-0.719D-02 0.427D-02
 Coeff:      0.103D-01 0.685D-02-0.167D-01-0.824D-01-0.901D-01 0.601D-01
 Coeff:      0.240D+00 0.218D+00-0.147D+00-0.344D+00-0.136D+00 0.131D+00
 Coeff:      0.736D+00 0.417D+00
 Gap=     0.101 Goal=   None    Shift=    0.000
 Gap=     0.072 Goal=   None    Shift=    0.000
 RMSDP=2.83D-08 MaxDP=4.68D-06 DE=-1.30D-10 OVMax= 1.49D-05

 Cycle  35  Pass 1  IDiag  1:
 RMSU=  7.78D-09    CP:  1.00D+00  1.71D+00  3.00D+00  3.00D+00  3.00D+00
                    CP:  3.00D+00  3.00D+00  3.00D+00  3.00D+00  3.00D+00
                    CP:  3.00D+00  2.39D+00  1.59D+00  1.87D+00
 E= -3159.62278849129     Delta-E=       -0.000000000025 Rises=F Damp=F
 DIIS: error= 1.92D-08 at cycle  35 NSaved=  20.
 NSaved=20 IEnMin=20 EnMin= -3159.62278849129     IErMin=20 ErrMin= 1.92D-08
 ErrMax= 1.92D-08  0.00D+00 EMaxC= 1.00D-01 BMatC= 7.09D-13 BMatP= 5.23D-12
 IDIUse=1 WtCom= 1.00D+00 WtEn= 0.00D+00
 Coeff-Com: -0.152D-03 0.117D-03 0.164D-03-0.576D-03-0.270D-03 0.117D-02
 Coeff-Com:  0.103D-02-0.179D-02-0.318D-02-0.318D-02-0.775D-02-0.307D-02
 Coeff-Com:  0.261D-01 0.336D-01 0.134D-01-0.687D-01-0.110D+00 0.149D-01
 Coeff-Com:  0.160D+00 0.948D+00
 Coeff:     -0.152D-03 0.117D-03 0.164D-03-0.576D-03-0.270D-03 0.117D-02
 Coeff:      0.103D-02-0.179D-02-0.318D-02-0.318D-02-0.775D-02-0.307D-02
 Coeff:      0.261D-01 0.336D-01 0.134D-01-0.687D-01-0.110D+00 0.149D-01
 Coeff:      0.160D+00 0.948D+00
 Gap=     0.101 Goal=   None    Shift=    0.000
 Gap=     0.072 Goal=   None    Shift=    0.000
 RMSDP=1.01D-08 MaxDP=1.25D-06 DE=-2.46D-11 OVMax= 5.23D-06

 Cycle  36  Pass 1  IDiag  1:
 RMSU=  3.21D-09    CP:  1.00D+00  1.71D+00  3.00D+00  3.00D+00  3.00D+00
                    CP:  3.00D+00  3.00D+00  3.00D+00  3.00D+00  3.00D+00
                    CP:  3.00D+00  2.44D+00  1.70D+00  2.19D+00  1.18D+00
 E= -3159.62278849103     Delta-E=        0.000000000259 Rises=F Damp=F
 DIIS: error= 1.69D-08 at cycle  36 NSaved=  20.
 NSaved=20 IEnMin=19 EnMin= -3159.62278849129     IErMin=20 ErrMin= 1.69D-08
 ErrMax= 1.69D-08  0.00D+00 EMaxC= 1.00D-01 BMatC= 9.97D-13 BMatP= 7.09D-13
 IDIUse=1 WtCom= 1.00D+00 WtEn= 0.00D+00
 Coeff-Com: -0.274D-03 0.310D-04 0.255D-03-0.215D-03-0.593D-03 0.241D-04
 Coeff-Com:  0.430D-02 0.129D-01 0.977D-02-0.270D-01-0.434D-01-0.487D-02
 Coeff-Com:  0.589D-01 0.643D-01-0.335D-01-0.115D+00-0.155D+00 0.531D-01
 Coeff-Com:  0.756D+00 0.419D+00
 Coeff:     -0.274D-03 0.310D-04 0.255D-03-0.215D-03-0.593D-03 0.241D-04
 Coeff:      0.430D-02 0.129D-01 0.977D-02-0.270D-01-0.434D-01-0.487D-02
 Coeff:      0.589D-01 0.643D-01-0.335D-01-0.115D+00-0.155D+00 0.531D-01
 Coeff:      0.756D+00 0.419D+00
 Gap=     0.101 Goal=   None    Shift=    0.000
 Gap=     0.072 Goal=   None    Shift=    0.000
 RMSDP=4.39D-09 MaxDP=5.99D-07 DE= 2.59D-10 OVMax= 2.21D-06

 SCF Done:  E(UB3LYP) =  -3159.62278849     A.U. after   36 cycles
            NFock= 36  Conv=0.44D-08     -V/T= 2.0051
 <Sx>= 0.0000 <Sy>= 0.0000 <Sz>= 2.0000 <S**2>= 6.0660 S= 2.0132
 <L.S>= 0.000000000000E+00
 KE= 3.143675441324D+03 PE=-1.487813795414D+04 EE= 4.861836147724D+03
 Annihilation of the first spin contaminant:
 S**2 before annihilation     6.0660,   after     6.0004
 Leave Link  502 at Thu Dec 22 18:02:11 2022, MaxMem=  1610612736 cpu:            6650.5 elap:             881.1
 (Enter /aplic/Gaussian/g16b01_iqtc09/g16/l508.exe)
 QCSCF skips out because SCF is already converged.
[...]
    40   Atom       -0.000064      0.000007     -0.005903
    41   Atom        0.016293     -0.001421     -0.004388
    42   Atom        0.006795     -0.010531     -0.013530
    43   Atom        0.016090      0.022809     -0.027333
    44   Atom       -0.001703      0.001541      0.001542
    45   Atom       -0.000046     -0.001637     -0.000113
    46   Atom       -0.007567     -0.003317     -0.008863
    47   Atom       -0.002121      0.000374     -0.000657
 --------------------------------------------------------


 ---------------------------------------------------------------------------------
              Anisotropic Spin Dipole Couplings in Principal Axis System
 ---------------------------------------------------------------------------------

       Atom             a.u.   MegaHertz   Gauss  10(-4) cm-1        Axes

              Baa    -1.1814   -20.453    -7.298    -6.823  0.7677  0.2834  0.5748
     1 Fe(57) Bbb    -1.1110   -19.234    -6.863    -6.416  0.6300 -0.4980 -0.5959
              Bcc     2.2924    39.688    14.161    13.238  0.1173  0.8196 -0.5608
 
              Baa    -0.1277    -5.234    -1.868    -1.746 -0.5792 -0.3311  0.7449
     2 S(33)  Bbb     0.0354     1.451     0.518     0.484  0.7867  0.0125  0.6173
              Bcc     0.0923     3.783     1.350     1.262 -0.2137  0.9435  0.2532
 
              Baa    -0.0786    -3.224    -1.150    -1.075 -0.3572  0.4972  0.7907
     3 S(33)  Bbb    -0.0348    -1.428    -0.509    -0.476  0.7223  0.6838 -0.1037
              Bcc     0.1134     4.651     1.660     1.551  0.5922 -0.5341  0.6034
 
              Baa    -0.1042    -4.018    -1.434    -1.340  0.1702  0.9329 -0.3173
     4 N(14)  Bbb    -0.0805    -3.105    -1.108    -1.036  0.8934 -0.0102  0.4491
              Bcc     0.1847     7.122     2.541     2.376 -0.4157  0.3599  0.8353
 
              Baa    -0.0858    -3.308    -1.180    -1.103 -0.3057 -0.6544  0.6916
     5 N(14)  Bbb    -0.0592    -2.282    -0.814    -0.761  0.2355  0.6519  0.7208
              Bcc     0.1449     5.590     1.995     1.865  0.9226 -0.3832  0.0451
 
              Baa    -0.1009    -3.893    -1.389    -1.298 -0.2548 -0.6135  0.7475
     6 N(14)  Bbb    -0.0831    -3.206    -1.144    -1.069  0.9353  0.0397  0.3515
              Bcc     0.1840     7.098     2.533     2.368 -0.2453  0.7887  0.5637
 
              Baa    -0.1013    -3.906    -1.394    -1.303  0.9095 -0.2875 -0.3003
     7 N(14)  Bbb    -0.0996    -3.839    -1.370    -1.281  0.4131  0.5446  0.7299
              Bcc     0.2008     7.745     2.764     2.583  0.0463  0.7879 -0.6141
 
              Baa    -0.0846    -3.263    -1.164    -1.089  0.7890  0.1068  0.6050
     8 N(14)  Bbb    -0.0686    -2.644    -0.944    -0.882 -0.4919  0.6998  0.5179
              Bcc     0.1532     5.908     2.108     1.971  0.3681  0.7063 -0.6047
 
              Baa    -0.0718    -2.769    -0.988    -0.924 -0.2932  0.5847  0.7564
     9 N(14)  Bbb    -0.0593    -2.288    -0.817    -0.763 -0.1874  0.7407 -0.6452
              Bcc     0.1311     5.058     1.805     1.687  0.9375  0.3309  0.1076
 
              Baa    -0.0375    -5.033    -1.796    -1.679  0.9259 -0.0464  0.3750
    10 C(13)  Bbb    -0.0112    -1.499    -0.535    -0.500  0.3044  0.6794 -0.6677
              Bcc     0.0487     6.532     2.331     2.179 -0.2238  0.7323  0.6431
 
              Baa    -0.0201   -10.738    -3.831    -3.582  0.9955  0.0207  0.0924
    11 H(1)   Bbb    -0.0194   -10.375    -3.702    -3.461 -0.0724 -0.4627  0.8836
              Bcc     0.0396    21.112     7.533     7.042 -0.0611  0.8863  0.4591
 
              Baa    -0.0106    -1.420    -0.507    -0.474  0.3407  0.8124 -0.4733
    12 C(13)  Bbb    -0.0023    -0.309    -0.110    -0.103  0.9138 -0.1677  0.3699
              Bcc     0.0129     1.728     0.617     0.576 -0.2211  0.5585  0.7995
 
              Baa    -0.0042    -2.240    -0.799    -0.747  0.5187  0.6550 -0.5495
    13 H(1)   Bbb    -0.0041    -2.175    -0.776    -0.726  0.8270 -0.2212  0.5169
              Bcc     0.0083     4.415     1.575     1.473 -0.2171  0.7225  0.6564
 
              Baa    -0.0233    -3.120    -1.113    -1.041  0.8936 -0.0697  0.4434
    14 C(13)  Bbb     0.0044     0.587     0.209     0.196  0.2166  0.9322 -0.2900
              Bcc     0.0189     2.533     0.904     0.845 -0.3931  0.3552  0.8481
 
              Baa    -0.0028    -1.486    -0.530    -0.496  0.9023 -0.0878  0.4221
    15 H(1)   Bbb    -0.0015    -0.786    -0.280    -0.262  0.2250  0.9311 -0.2872
              Bcc     0.0043     2.272     0.811     0.758 -0.3678  0.3541  0.8598
 
              Baa    -0.0103    -1.387    -0.495    -0.463  0.0928  0.9932 -0.0710
    16 C(13)  Bbb    -0.0019    -0.259    -0.092    -0.086  0.9447 -0.0653  0.3213
              Bcc     0.0123     1.646     0.587     0.549 -0.3144  0.0969  0.9443
 
              Baa    -0.0043    -2.319    -0.828    -0.774 -0.0575  0.9955  0.0748
    17 H(1)   Bbb    -0.0042    -2.217    -0.791    -0.739  0.9088  0.0212  0.4167
              Bcc     0.0085     4.536     1.619     1.513 -0.4132 -0.0920  0.9060
 
              Baa    -0.0410    -5.508    -1.965    -1.837  0.8779 -0.2243  0.4230
    18 C(13)  Bbb    -0.0068    -0.915    -0.327    -0.305  0.1497  0.9678  0.2026
              Bcc     0.0479     6.423     2.292     2.142 -0.4548 -0.1146  0.8832
 
              Baa    -0.0214    -2.869    -1.024    -0.957  0.8786  0.0639  0.4733
    19 C(13)  Bbb    -0.0169    -2.264    -0.808    -0.755 -0.2832  0.8676  0.4086
              Bcc     0.0382     5.132     1.831     1.712 -0.3846 -0.4931  0.7804
 
              Baa    -0.0154    -8.223    -2.934    -2.743 -0.0932  0.7812  0.6173
    20 H(1)   Bbb    -0.0142    -7.596    -2.710    -2.534  0.7640 -0.3415  0.5475
              Bcc     0.0296    15.819     5.644     5.277  0.6385  0.5227 -0.5650
 
              Baa    -0.0087    -4.620    -1.648    -1.541  0.7686  0.3890  0.5078
    21 H(1)   Bbb    -0.0082    -4.370    -1.559    -1.458 -0.5759  0.7665  0.2844
              Bcc     0.0168     8.989     3.208     2.999 -0.2786 -0.5111  0.8131
 
              Baa    -0.0265    -3.551    -1.267    -1.185  0.1490  0.7357  0.6607
    22 C(13)  Bbb    -0.0101    -1.354    -0.483    -0.452  0.1546 -0.6773  0.7193
              Bcc     0.0366     4.906     1.750     1.636  0.9767 -0.0050 -0.2147
 
              Baa    -0.0171    -9.148    -3.264    -3.051 -0.1564  0.8473  0.5076
    23 H(1)   Bbb    -0.0145    -7.763    -2.770    -2.589  0.3378 -0.4371  0.8336
              Bcc     0.0317    16.910     6.034     5.641  0.9281  0.3018 -0.2178
 
              Baa    -0.0088    -1.181    -0.422    -0.394 -0.5364 -0.5691  0.6232
    24 C(13)  Bbb    -0.0044    -0.587    -0.209    -0.196  0.0593  0.7112  0.7005
              Bcc     0.0132     1.768     0.631     0.590  0.8418 -0.4127  0.3478
 
              Baa    -0.0042    -2.264    -0.808    -0.755 -0.3494  0.1585  0.9235
    25 H(1)   Bbb    -0.0041    -2.203    -0.786    -0.735  0.6126  0.7844  0.0972
              Bcc     0.0084     4.467     1.594     1.490  0.7090 -0.5997  0.3711
 
              Baa    -0.0293    -3.926    -1.401    -1.309 -0.0181  0.5093  0.8604
    26 C(13)  Bbb    -0.0086    -1.159    -0.414    -0.387  0.6897  0.6293 -0.3581
              Bcc     0.0379     5.085     1.814     1.696  0.7239 -0.5869  0.3627
 
              Baa    -0.0210    -2.815    -1.004    -0.939 -0.0666  0.7303  0.6799
    27 C(13)  Bbb    -0.0140    -1.883    -0.672    -0.628  0.9012  0.3364 -0.2731
              Bcc     0.0350     4.698     1.676     1.567  0.4282 -0.5946  0.6806
 
              Baa    -0.0142    -7.580    -2.705    -2.529  0.7551 -0.4514 -0.4755
    28 H(1)   Bbb    -0.0130    -6.962    -2.484    -2.322  0.5537  0.8274  0.0937
              Bcc     0.0273    14.543     5.189     4.851  0.3511 -0.3340  0.8747
 
              Baa    -0.0086    -4.610    -1.645    -1.538 -0.2436  0.5675  0.7865
    29 H(1)   Bbb    -0.0078    -4.185    -1.493    -1.396  0.8985  0.4374 -0.0373
              Bcc     0.0165     8.795     3.138     2.934 -0.3652  0.6976 -0.6164
 
              Baa    -0.0373    -4.999    -1.784    -1.668  0.9109  0.0272  0.4116
    30 C(13)  Bbb    -0.0107    -1.434    -0.512    -0.478  0.1571  0.8997 -0.4072
              Bcc     0.0479     6.433     2.295     2.146 -0.3814  0.4356  0.8153
 
              Baa    -0.0194   -10.377    -3.703    -3.462  0.8994 -0.1383  0.4148
    31 H(1)   Bbb    -0.0179    -9.577    -3.417    -3.194  0.1934  0.9766 -0.0937
              Bcc     0.0374    19.954     7.120     6.656 -0.3921  0.1645  0.9051
 
              Baa    -0.0103    -1.376    -0.491    -0.459  0.2154  0.7864 -0.5789
    32 C(13)  Bbb    -0.0024    -0.328    -0.117    -0.109  0.9143  0.0457  0.4024
              Bcc     0.0127     1.704     0.608     0.568 -0.3429  0.6160  0.7092
 
              Baa    -0.0041    -2.185    -0.780    -0.729  0.6912 -0.4443  0.5699
    33 H(1)   Bbb    -0.0040    -2.123    -0.758    -0.708  0.6160  0.7746 -0.1432
              Bcc     0.0081     4.309     1.537     1.437 -0.3778  0.4500  0.8092
 
              Baa    -0.0238    -3.188    -1.137    -1.063  0.9100  0.0671  0.4091
    34 C(13)  Bbb     0.0047     0.636     0.227     0.212 -0.2866 -0.6113  0.7377
              Bcc     0.0190     2.552     0.911     0.851 -0.2996  0.7886  0.5370
 
              Baa    -0.0028    -1.480    -0.528    -0.494  0.9133  0.0438  0.4049
    35 H(1)   Bbb    -0.0014    -0.742    -0.265    -0.248 -0.2969 -0.6088  0.7356
              Bcc     0.0042     2.222     0.793     0.741 -0.2787  0.7921  0.5431
 
              Baa    -0.0104    -1.393    -0.497    -0.465 -0.3494 -0.3930  0.8506
    36 C(13)  Bbb    -0.0012    -0.165    -0.059    -0.055  0.9194  0.0310  0.3920
              Bcc     0.0116     1.558     0.556     0.520 -0.1805  0.9190  0.3505
 
              Baa    -0.0044    -2.326    -0.830    -0.776 -0.4560 -0.2090  0.8651
    37 H(1)   Bbb    -0.0041    -2.209    -0.788    -0.737  0.8809  0.0324  0.4722
              Bcc     0.0085     4.535     1.618     1.513 -0.1267  0.9774  0.1693
 
              Baa    -0.0411    -5.516    -1.968    -1.840  0.9057  0.0254  0.4232
    38 C(13)  Bbb    -0.0069    -0.925    -0.330    -0.309 -0.4118 -0.1845  0.8924
              Bcc     0.0480     6.441     2.298     2.149 -0.1007  0.9825  0.1566
 
              Baa    -0.0212    -2.846    -1.015    -0.949  0.9582 -0.0464  0.2822
    39 C(13)  Bbb    -0.0167    -2.245    -0.801    -0.749 -0.2673  0.2055  0.9414
              Bcc     0.0379     5.091     1.816     1.698  0.1017  0.9776 -0.1845
 
              Baa    -0.0087    -4.634    -1.653    -1.546  0.9998  0.0071  0.0182
    40 H(1)   Bbb    -0.0082    -4.388    -1.566    -1.464 -0.0194  0.2420  0.9701
              Bcc     0.0169     9.021     3.219     3.009 -0.0025  0.9703 -0.2421
 
              Baa    -0.0150    -7.988    -2.850    -2.665 -0.5510  0.3446  0.7600
    41 H(1)   Bbb    -0.0138    -7.385    -2.635    -2.463  0.7224 -0.2589  0.6412
              Bcc     0.0288    15.373     5.485     5.128  0.4177  0.9023 -0.1063
 
              Baa    -0.0182    -2.436    -0.869    -0.813  0.8284  0.0620  0.5568
    42 C(13)  Bbb    -0.0064    -0.858    -0.306    -0.286 -0.4698  0.6182  0.6302
              Bcc     0.0245     3.294     1.175     1.099  0.3051  0.7836 -0.5412
 
              Baa    -0.0540    -7.250    -2.587    -2.418 -0.3220  0.5035  0.8017
    43 C(13)  Bbb     0.0165     2.216     0.791     0.739 -0.0714  0.8315 -0.5509
              Bcc     0.0375     5.034     1.796     1.679  0.9440  0.2346  0.2318
 
              Baa    -0.0086    -1.156    -0.413    -0.386  0.1026  0.8671 -0.4875
    44 C(13)  Bbb    -0.0047    -0.634    -0.226    -0.211 -0.0282  0.4924  0.8699
              Bcc     0.0133     1.790     0.639     0.597  0.9943 -0.0755  0.0750
 
              Baa    -0.0040    -2.120    -0.756    -0.707  0.0744  0.8661  0.4943
    45 H(1)   Bbb    -0.0037    -1.974    -0.704    -0.658  0.1240 -0.4998  0.8572
              Bcc     0.0077     4.093     1.461     1.365  0.9895 -0.0025 -0.1446
 
              Baa    -0.0175    -2.344    -0.836    -0.782  0.2335  0.5698  0.7879
    46 C(13)  Bbb     0.0020     0.270     0.096     0.090  0.3312  0.7152 -0.6154
              Bcc     0.0155     2.074     0.740     0.692  0.9142 -0.4046  0.0217
 
              Baa    -0.0027    -1.430    -0.510    -0.477  0.1628  0.6128  0.7733
    47 H(1)   Bbb    -0.0017    -0.906    -0.323    -0.302  0.3309  0.7044 -0.6279
              Bcc     0.0044     2.336     0.834     0.779  0.9295 -0.3581  0.0881
 

 ---------------------------------------------------------------------------------

 No NMR shielding tensors so no spin-rotation constants.
 Leave Link  601 at Fri Dec 23 06:04:24 2022, MaxMem=  1610612736 cpu:               4.4 elap:               0.6
 (Enter /aplic/Gaussian/g16b01_iqtc09/g16/l716.exe)
 Dipole        =-2.86799375D+00 2.10452102D+00-2.97018914D+00
 Polarizability= 0.00000000D+00 0.00000000D+00 0.00000000D+00
                 0.00000000D+00 0.00000000D+00 0.00000000D+00
 -------------------------------------------------------------------
 Center     Atomic                   Forces (Hartrees/Bohr)
 Number     Number              X              Y              Z
 -------------------------------------------------------------------
      1       26           0.000000618    0.000000338    0.000000284
      2       16           0.000006721    0.000005312   -0.000009456
      3       16           0.000001242    0.000000283   -0.000001662
      4        7          -0.000000530    0.000001065   -0.000000151
      5        7          -0.000000564   -0.000000409    0.000000403
      6        7           0.000000568    0.000000807   -0.000001022
      7        7           0.000000010    0.000000449   -0.000000160
      8        7          -0.000038528   -0.000027394    0.000052144
      9        7           0.000000604    0.000000031   -0.000001024
     10        6          -0.000000713   -0.000000527   -0.000000470
     11        1          -0.000000397    0.000000003   -0.000000149
     12        6          -0.000000883    0.000000358   -0.000000661
     13        1          -0.000000623   -0.000000598   -0.000000176
     14        6          -0.000001017   -0.000000473   -0.000000623
     15        1          -0.000000615   -0.000000229   -0.000000156
     16        6          -0.000000843    0.000000819   -0.000000295
     17        1          -0.000000442   -0.000000035   -0.000000204
     18        6          -0.000000510    0.000000442   -0.000000363
     19        6          -0.000000286    0.000000255   -0.000000327
     20        1           0.000000089    0.000000136   -0.000000443
     21        1          -0.000000233    0.000000048   -0.000000374
     22        6           0.000000903    0.000000293   -0.000000545
     23        1           0.000000626   -0.000000652   -0.000001039
     24        6          -0.000000835    0.000000474    0.000001493
     25        1          -0.000000031    0.000000212    0.000001289
     26        6           0.000000120   -0.000000323    0.000000571
     27        6          -0.000000201    0.000000414    0.000000042
     28        1          -0.000000161    0.000000826    0.000000340
     29        1          -0.000000074   -0.000000105    0.000000552
     30        6           0.000000189   -0.000000624   -0.000000262
     31        1           0.000000161    0.000000444   -0.000001405
     32        6           0.000000431    0.000000682   -0.000000140
     33        1          -0.000000213   -0.000000345   -0.000000232
     34        6           0.000000666   -0.000001333    0.000001106
     35        1           0.000000408   -0.000000167    0.000000723
     36        6           0.000000831    0.000000252    0.000000528
     37        1           0.000000639   -0.000000431    0.000000869
     38        6           0.000000512   -0.000000879    0.000000329
     39        6           0.000000366    0.000000006   -0.000000086
     40        1           0.000000317    0.000000151    0.000000006
     41        1           0.000000291    0.000000098   -0.000000251
     42        6           0.000028558    0.000018837   -0.000039941
     43        6           0.000001131    0.000000461   -0.000001204
     44        6           0.000000029    0.000000265    0.000000429
     45        1           0.000000802   -0.000000014   -0.000000251
     46        6           0.000000804    0.000000398    0.000000878
     47        1           0.000000059    0.000000384    0.000001086
 -------------------------------------------------------------------
 Cartesian Forces:  Max     0.000052144 RMS     0.000007499
 Leave Link  716 at Fri Dec 23 06:04:24 2022, MaxMem=  1610612736 cpu:               0.1 elap:               0.0
 (Enter /aplic/Gaussian/g16b01_iqtc09/g16/l9999.exe)

 Test job not archived.
 1\1\GINC-G2NODER6\FOpt\UB3LYP\def2SVP\C20H18Fe1N6S2(5)\ROOT\23-Dec-202
 2\0\\#p nosymm scf=(maxconventionalcycles=200,xqc) UB3LYP IOp(3/76=100
 0001500) IOp(3/77=0720008500) IOp(3/78=0810010000) def2SVP opt=(Recalc
 FC=30,cartesian,skipdihedral) EmpiricalDispersion=GD3BJ\\Title Card\\0
 ,5\Fe,3.7747743228,3.7790860982,13.4948148068\S,1.6274438417,1.2606467
 145,16.6459262957\S,7.7750666523,6.0706713421,13.495127836\N,4.3883658
 77,3.0127811819,11.5738297275\N,1.5542856707,4.1392794602,12.893163804
 8\N,3.2251629911,5.4675988325,14.7489127531\N,3.8276553505,5.637491011
 8,12.0216928493\N,3.2341032138,2.1682914611,14.5320567262\N,5.75603631
 1,4.1567866109,13.9195977493\C,4.4030597725,1.6975320805,11.3143454602
 \H,3.9575643322,1.0569362502,12.0841321189\C,4.9620064026,1.1779057397
 ,10.1471581377\H,4.961604219,0.0987549191,9.9725900473\C,5.5137407059,
 2.0668690515,9.2194803843\H,5.9589017299,1.6979280289,8.2903681381\C,5
 .487221994,3.4361569582,9.493861121\H,5.9070171099,4.1612147418,8.7903
 463493\C,4.9220633817,3.8787714173,10.6940948033\C,4.921934464,5.34053
 47604,11.0885537329\H,5.8830235177,5.5750045097,11.5796784048\H,4.8705
 514259,5.9736699293,10.179266491\C,0.5338201862,3.6478692621,13.609126
 8257\H,0.7329760342,2.7473187121,14.1974670033\C,0.1475631494,5.942191
 095,12.164908303\H,0.03964996,6.860404276,11.5799976143\C,1.3666956837
 ,5.2598550484,12.1736120378\C,2.5369756687,5.6947800896,11.3246141979\
 H,2.5900706016,4.9959849775,10.4718588267\H,2.3546709177,6.7039807552,
 10.9039167246\C,2.6713556765,5.3173132348,15.9609148141\H,2.556322087,
 4.2898872753,16.3254684492\C,2.2473402337,6.4063553623,16.7224949125\H
 ,1.8057748508,6.2422373452,17.7088570329\C,2.3945669992,7.6906384751,1
 6.1908344196\H,2.0677640504,8.5693228882,16.7553952022\C,2.9598625358,
 7.8367611152,14.9222971751\H,3.0860864448,8.8254529384,14.4713779532\C
 ,3.3746378393,6.6968793424,14.2257173937\C,4.0752221722,6.7969173866,1
 2.8871073376\H,3.786628133,7.7438116743,12.387439824\H,5.1625243369,6.
 8567927032,13.0819451752\C,2.5726987389,1.7593598925,15.4381551635\C,6
 .6409325794,4.9355891369,13.7799792954\C,-0.7233831824,4.2583246704,13
 .6420418694\H,-1.522564033,3.8187352245,14.244729631\C,-0.9185724036,5
 .4319971951,12.9122474184\H,-1.8834705468,5.9481588238,12.9271936624\\
 Version=ES64L-G16RevB.01\HF=-3159.6257929\S2=6.04333\S2-1=0.\S2A=6.000
 194\RMSD=4.973e-09\RMSF=7.499e-06\Dipole=-2.8679937,2.104521,-2.970189
 1\Polar=0.,0.,0.,0.,0.,0.\Quadrupole=0.9276859,88.9351273,-89.8628133,
 -26.073315,-99.4338811,44.1053597\PG=C01 [X(C20H18Fe1N6S2)]\\@


 A successful marriage requires falling in love
 many times, always with the same person.
                           -- Mignon McLaughlin
 Job cpu time:       3 days 23 hours 24 minutes 46.6 seconds.
 Elapsed time:       0 days 12 hours 16 minutes 58.6 seconds.
 File lengths (MBytes):  RWF=   3033 Int=      0 D2E=      0 Chk=     32 Scr=      1
 Normal termination of Gaussian 16 at Fri Dec 23 06:04:25 2022.
