 Entering Gaussian System, Link 0=g16
 Initial command:
 /aplic/Gaussian/g16b01_iqtc08/g16/l1.exe "/scratch/2722564.1.iqtc08.q/Gau-9286.inp" -scrdir="/scratch/2722564.1.iqtc08.q/"
 Entering Link 1 = /aplic/Gaussian/g16b01_iqtc08/g16/l1.exe PID=      9287.
  
 Copyright (c) 1988-2017, Gaussian, Inc.  All Rights Reserved.
  
 This is part of the Gaussian(R) 16 program.  It is based on
 the Gaussian(R) 09 system (copyright 2009, Gaussian, Inc.),
 the Gaussian(R) 03 system (copyright 2003, Gaussian, Inc.),
 the Gaussian(R) 98 system (copyright 1998, Gaussian, Inc.),
 the Gaussian(R) 94 system (copyright 1995, Gaussian, Inc.),
 the Gaussian 92(TM) system (copyright 1992, Gaussian, Inc.),
 the Gaussian 90(TM) system (copyright 1990, Gaussian, Inc.),
 the Gaussian 88(TM) system (copyright 1988, Gaussian, Inc.),
 the Gaussian 86(TM) system (copyright 1986, Carnegie Mellon
 University), and the Gaussian 82(TM) system (copyright 1983,
 Carnegie Mellon University). Gaussian is a federally registered
 trademark of Gaussian, Inc.
  
 This software contains proprietary and confidential information,
 including trade secrets, belonging to Gaussian, Inc.
  
 This software is provided under written license and may be
 used, copied, transmitted, or stored only in accord with that
 written license.
  
 The following legend is applicable only to US Government
 contracts under FAR:
  
                    RESTRICTED RIGHTS LEGEND
  
 Use, reproduction and disclosure by the US Government is
 subject to restrictions as set forth in subparagraphs (a)
 and (c) of the Commercial Computer Software - Restricted
 Rights clause in FAR 52.227-19.
  
 Gaussian, Inc.
 340 Quinnipiac St., Bldg. 40, Wallingford CT 06492
  
  
 ---------------------------------------------------------------
 Warning -- This program may not be used in any manner that
 competes with the business of Gaussian, Inc. or will provide
 assistance to any competitor of Gaussian, Inc.  The licensee
 of this program is prohibited from giving any competitor of
 Gaussian, Inc. access to this program.  By using this program,
 the user acknowledges that Gaussian, Inc. is engaged in the
 business of creating and licensing software in the field of
 computational chemistry and represents and warrants to the
 licensee that it is not a competitor of Gaussian, Inc. and that
 it will not use this program in any manner prohibited above.
 ---------------------------------------------------------------
  

 Cite this work as:
 Gaussian 16, Revision B.01,
 M. J. Frisch, G. W. Trucks, H. B. Schlegel, G. E. Scuseria, 
 M. A. Robb, J. R. Cheeseman, G. Scalmani, V. Barone, 
 G. A. Petersson, H. Nakatsuji, X. Li, M. Caricato, A. V. Marenich, 
 J. Bloino, B. G. Janesko, R. Gomperts, B. Mennucci, H. P. Hratchian, 
 J. V. Ortiz, A. F. Izmaylov, J. L. Sonnenberg, D. Williams-Young, 
 F. Ding, F. Lipparini, F. Egidi, J. Goings, B. Peng, A. Petrone, 
 T. Henderson, D. Ranasinghe, V. G. Zakrzewski, J. Gao, N. Rega, 
 G. Zheng, W. Liang, M. Hada, M. Ehara, K. Toyota, R. Fukuda, 
 J. Hasegawa, M. Ishida, T. Nakajima, Y. Honda, O. Kitao, H. Nakai, 
 T. Vreven, K. Throssell, J. A. Montgomery, Jr., J. E. Peralta, 
 F. Ogliaro, M. J. Bearpark, J. J. Heyd, E. N. Brothers, K. N. Kudin, 
 V. N. Staroverov, T. A. Keith, R. Kobayashi, J. Normand, 
 K. Raghavachari, A. P. Rendell, J. C. Burant, S. S. Iyengar, 
 J. Tomasi, M. Cossi, J. M. Millam, M. Klene, C. Adamo, R. Cammi, 
 J. W. Ochterski, R. L. Martin, K. Morokuma, O. Farkas, 
 J. B. Foresman, and D. J. Fox, Gaussian, Inc., Wallingford CT, 2016.
 
 ******************************************
 Gaussian 16:  ES64L-G16RevB.01 20-Dec-2017
                24-Dec-2022 
 ******************************************
 %nprocs=7
 Will use up to    7 processors via shared memory.
 %mem=10gb
 %chk=ABITEM_freq_LS.chk
 ----------------------------------------------------------------------
 #p nosymm scf=(maxconventionalcycles=200,xqc) UB3LYP IOp(3/76=10000015
 00) IOp(3/77=0720008500) IOp(3/78=0810010000) def2SVP freq EmpiricalDi
 spersion=GD3BJ
 ----------------------------------------------------------------------
 1/10=4,30=1,38=1/1,3;
 2/12=2,15=1,17=6,18=5,40=1/2;
 3/5=43,7=101,11=2,25=1,30=1,71=2,74=-5,76=1000001500,77=720008500,78=810010000,116=2,124=41,140=1/1,2,3;
 4//1;
 5/5=2,8=3,13=1,38=5,85=200,98=1/2,8;
 8/6=4,10=90,11=11/1;
 11/6=1,8=1,9=11,15=111,16=1,31=1/1,2,10;
 10/6=1,31=1/2;
 6/7=2,8=2,9=2,10=2,28=1/1;
 7/8=1,10=1,25=1,30=1/1,2,3,16;
 1/10=4,30=1/3;
 99//99;
 Leave Link    1 at Sat Dec 24 02:09:17 2022, MaxMem=  1342177280 cpu:               0.6 elap:               0.1
 (Enter /aplic/Gaussian/g16b01_iqtc08/g16/l101.exe)
 ----------
 Title Card
 ----------
 Symbolic Z-matrix:
 Charge =  0 Multiplicity = 1
 Fe                    4.17178   7.78114   4.15897 
 S                     8.49441   6.29137   3.96333 
 S                     2.55928   10.80467   1.02433 
 N                     2.24671   7.61253   4.5893 
 N                     3.84894   6.40446   2.79447 
 N                     4.64605   8.821     5.75042 
 N                     4.41107   6.20217   5.43692 
 N                     3.8531    9.29003   3.00673 
 N                     6.06549   7.68322   3.72273 
 C                     3.33957   6.58834   1.56543 
 H                     3.12194   7.62133   1.27974 
 C                     3.10734   5.51942   0.69961 
 H                     2.69906   5.71214  -0.29582 
 C                     3.40212   4.2232    1.12856 
 H                     3.22716   3.36397   0.47423 
 C                     3.92609   4.04005   2.41125 
 H                     4.17312   3.04181   2.78376 
 C                     4.14762   5.15582   3.21957 
 C                     4.804     5.06144   4.57662 
 H                     5.89847   5.10272   4.43152 
 H                     4.5724    4.09279   5.05824 
 C                     1.23596   8.26199   3.97623 
 H                     1.51386   9.07928   3.30742 
 C                     0.64186   6.14852   5.62356 
 H                     0.45183   5.29714   6.28376 
 C                     1.95105   6.57813   5.40824 
 C                     3.12373   5.98624   6.14112 
 H                     2.96267   4.91413   6.35524 
 H                     3.18566   6.49547   7.1184 
 C                     4.47384   10.14161   5.91348 
 H                     3.99111   10.65679   5.07798 
 C                     4.90908   10.80409   7.06141 
 H                     4.75817   11.88278   7.15435 
 C                     5.53627   10.06782   8.06956 
 H                     5.88832   10.55717   8.98258 
 C                     5.70987   8.6913    7.89343 
 H                     6.19837   8.08081   8.65827 
 C                     5.26139   8.09621   6.71446 
 C                     5.45624   6.63073   6.40064 
 H                     5.43035   6.02177   7.32446 
 H                     6.44802   6.48345   5.94184 
 C                     3.34469   9.95333   2.16452 
 C                     7.11611   7.14076   3.77416 
 C                    -0.09841   7.90065   4.16046 
 H                    -0.87813   8.46157   3.63868 
 C                    -0.40723   6.82151   4.99123 
 H                    -1.44346   6.50476   5.1417 
 
 ITRead=  0  0  0  0  0  0  0  0  0  0  0  0  0  0  0  0  0  0  0  0
 ITRead=  0  0  0  0  0  0  0  0  0  0  0  0  0  0  0  0  0  0  0  0
 ITRead=  0  0  0  0  0  0  0
 MicOpt= -1 -1 -1 -1 -1 -1 -1 -1 -1 -1 -1 -1 -1 -1 -1 -1 -1 -1 -1 -1
 MicOpt= -1 -1 -1 -1 -1 -1 -1 -1 -1 -1 -1 -1 -1 -1 -1 -1 -1 -1 -1 -1
 MicOpt= -1 -1 -1 -1 -1 -1 -1
 NAtoms=     47 NQM=       47 NQMF=       0 NMMI=      0 NMMIF=      0
                NMic=       0 NMicF=      0.
                    Isotopes and Nuclear Properties:
 (Nuclear quadrupole moments (NQMom) in fm**2, nuclear magnetic moments (NMagM)
  in nuclear magnetons)

  Atom         1           2           3           4           5           6           7           8           9          10
 IAtWgt=          56          32          32          14          14          14          14          14          14          12
 AtmWgt=  55.9349393  31.9720718  31.9720718  14.0030740  14.0030740  14.0030740  14.0030740  14.0030740  14.0030740  12.0000000
 NucSpn=           0           0           0           2           2           2           2           2           2           0
 AtZEff=  -0.0000000  -0.0000000  -0.0000000  -0.0000000  -0.0000000  -0.0000000  -0.0000000  -0.0000000  -0.0000000  -0.0000000
 NQMom=    0.0000000   0.0000000   0.0000000   2.0440000   2.0440000   2.0440000   2.0440000   2.0440000   2.0440000   0.0000000
 NMagM=    0.0000000   0.0000000   0.0000000   0.4037610   0.4037610   0.4037610   0.4037610   0.4037610   0.4037610   0.0000000
 AtZNuc=  26.0000000  16.0000000  16.0000000   7.0000000   7.0000000   7.0000000   7.0000000   7.0000000   7.0000000   6.0000000

  Atom        11          12          13          14          15          16          17          18          19          20
 IAtWgt=           1          12           1          12           1          12           1          12          12           1
 AtmWgt=   1.0078250  12.0000000   1.0078250  12.0000000   1.0078250  12.0000000   1.0078250  12.0000000  12.0000000   1.0078250
 NucSpn=           1           0           1           0           1           0           1           0           0           1
 AtZEff=  -0.0000000  -0.0000000  -0.0000000  -0.0000000  -0.0000000  -0.0000000  -0.0000000  -0.0000000  -0.0000000  -0.0000000
 NQMom=    0.0000000   0.0000000   0.0000000   0.0000000   0.0000000   0.0000000   0.0000000   0.0000000   0.0000000   0.0000000
 NMagM=    2.7928460   0.0000000   2.7928460   0.0000000   2.7928460   0.0000000   2.7928460   0.0000000   0.0000000   2.7928460
 AtZNuc=   1.0000000   6.0000000   1.0000000   6.0000000   1.0000000   6.0000000   1.0000000   6.0000000   6.0000000   1.0000000

  Atom        21          22          23          24          25          26          27          28          29          30
 IAtWgt=           1          12           1          12           1          12          12           1           1          12
 AtmWgt=   1.0078250  12.0000000   1.0078250  12.0000000   1.0078250  12.0000000  12.0000000   1.0078250   1.0078250  12.0000000
 NucSpn=           1           0           1           0           1           0           0           1           1           0
 AtZEff=  -0.0000000  -0.0000000  -0.0000000  -0.0000000  -0.0000000  -0.0000000  -0.0000000  -0.0000000  -0.0000000  -0.0000000
 NQMom=    0.0000000   0.0000000   0.0000000   0.0000000   0.0000000   0.0000000   0.0000000   0.0000000   0.0000000   0.0000000
 NMagM=    2.7928460   0.0000000   2.7928460   0.0000000   2.7928460   0.0000000   0.0000000   2.7928460   2.7928460   0.0000000
 AtZNuc=   1.0000000   6.0000000   1.0000000   6.0000000   1.0000000   6.0000000   6.0000000   1.0000000   1.0000000   6.0000000

  Atom        31          32          33          34          35          36          37          38          39          40
 IAtWgt=           1          12           1          12           1          12           1          12          12           1
 AtmWgt=   1.0078250  12.0000000   1.0078250  12.0000000   1.0078250  12.0000000   1.0078250  12.0000000  12.0000000   1.0078250
 NucSpn=           1           0           1           0           1           0           1           0           0           1
 AtZEff=  -0.0000000  -0.0000000  -0.0000000  -0.0000000  -0.0000000  -0.0000000  -0.0000000  -0.0000000  -0.0000000  -0.0000000
 NQMom=    0.0000000   0.0000000   0.0000000   0.0000000   0.0000000   0.0000000   0.0000000   0.0000000   0.0000000   0.0000000
 NMagM=    2.7928460   0.0000000   2.7928460   0.0000000   2.7928460   0.0000000   2.7928460   0.0000000   0.0000000   2.7928460
 AtZNuc=   1.0000000   6.0000000   1.0000000   6.0000000   1.0000000   6.0000000   1.0000000   6.0000000   6.0000000   1.0000000

  Atom        41          42          43          44          45          46          47
 IAtWgt=           1          12          12          12           1          12           1
 AtmWgt=   1.0078250  12.0000000  12.0000000  12.0000000   1.0078250  12.0000000   1.0078250
 NucSpn=           1           0           0           0           1           0           1
 AtZEff=  -0.0000000  -0.0000000  -0.0000000  -0.0000000  -0.0000000  -0.0000000  -0.0000000
 NQMom=    0.0000000   0.0000000   0.0000000   0.0000000   0.0000000   0.0000000   0.0000000
 NMagM=    2.7928460   0.0000000   0.0000000   0.0000000   2.7928460   0.0000000   2.7928460
 AtZNuc=   1.0000000   6.0000000   6.0000000   6.0000000   1.0000000   6.0000000   1.0000000
 Leave Link  101 at Sat Dec 24 02:09:18 2022, MaxMem=  1342177280 cpu:               1.0 elap:               0.2
 (Enter /aplic/Gaussian/g16b01_iqtc08/g16/l103.exe)

 GradGradGradGradGradGradGradGradGradGradGradGradGradGradGradGradGradGrad
 Berny optimization.
 Initialization pass.
 Trust Radius=3.00D-01 FncErr=1.00D-07 GrdErr=1.00D-07 EigMax=2.50D+02 EigMin=1.00D-04
 Number of steps in this run=      2 maximum allowed number of steps=      2.
 GradGradGradGradGradGradGradGradGradGradGradGradGradGradGradGradGradGrad

 Leave Link  103 at Sat Dec 24 02:09:18 2022, MaxMem=  1342177280 cpu:               0.2 elap:               0.1
 (Enter /aplic/Gaussian/g16b01_iqtc08/g16/l202.exe)
                          Input orientation:                          
 ---------------------------------------------------------------------
 Center     Atomic      Atomic             Coordinates (Angstroms)
 Number     Number       Type             X           Y           Z
 ---------------------------------------------------------------------
      1         26           0        4.171778    7.781139    4.158969
      2         16           0        8.494406    6.291371    3.963331
      3         16           0        2.559282   10.804675    1.024327
      4          7           0        2.246709    7.612534    4.589298
      5          7           0        3.848941    6.404457    2.794466
      6          7           0        4.646048    8.821002    5.750417
      7          7           0        4.411068    6.202169    5.436917
      8          7           0        3.853102    9.290034    3.006727
      9          7           0        6.065488    7.683220    3.722733
     10          6           0        3.339566    6.588344    1.565427
     11          1           0        3.121936    7.621331    1.279738
     12          6           0        3.107340    5.519416    0.699610
     13          1           0        2.699056    5.712141   -0.295821
     14          6           0        3.402122    4.223204    1.128562
     15          1           0        3.227161    3.363966    0.474232
     16          6           0        3.926088    4.040047    2.411251
     17          1           0        4.173125    3.041811    2.783760
     18          6           0        4.147615    5.155822    3.219567
     19          6           0        4.804001    5.061435    4.576625
     20          1           0        5.898473    5.102718    4.431519
     21          1           0        4.572405    4.092791    5.058237
     22          6           0        1.235957    8.261991    3.976226
     23          1           0        1.513856    9.079281    3.307420
     24          6           0        0.641864    6.148519    5.623558
     25          1           0        0.451827    5.297141    6.283764
     26          6           0        1.951047    6.578126    5.408241
     27          6           0        3.123728    5.986241    6.141116
     28          1           0        2.962672    4.914132    6.355239
     29          1           0        3.185662    6.495475    7.118403
     30          6           0        4.473842   10.141613    5.913479
     31          1           0        3.991109   10.656788    5.077978
     32          6           0        4.909078   10.804088    7.061408
     33          1           0        4.758166   11.882782    7.154355
     34          6           0        5.536269   10.067818    8.069559
     35          1           0        5.888320   10.557172    8.982582
     36          6           0        5.709868    8.691296    7.893429
     37          1           0        6.198367    8.080811    8.658271
     38          6           0        5.261386    8.096210    6.714460
     39          6           0        5.456238    6.630727    6.400640
     40          1           0        5.430346    6.021773    7.324460
     41          1           0        6.448023    6.483448    5.941837
     42          6           0        3.344688    9.953332    2.164519
     43          6           0        7.116106    7.140763    3.774156
     44          6           0       -0.098412    7.900648    4.160463
     45          1           0       -0.878130    8.461569    3.638676
     46          6           0       -0.407227    6.821511    4.991233
     47          1           0       -1.443464    6.504761    5.141696
 ---------------------------------------------------------------------
                    Distance matrix (angstroms):
                    1          2          3          4          5
     1  Fe   0.000000
     2  S    4.576330   0.000000
     3  S    4.644125   8.014571   0.000000
     4  N    1.979773   6.416465   4.795465   0.000000
     5  N    1.965031   4.791595   4.915133   2.692215   0.000000
     6  N    1.959325   4.939896   5.534029   2.926674   3.900348
     7  N    2.045375   4.342011   6.639512   2.718830   2.709143
     8  N    1.925092   5.607921   2.810341   2.810522   2.893376
     9  N    1.945772   2.809764   5.414643   3.916504   2.722131
    10  C    2.973516   5.693023   4.321930   3.374477   1.343061
    11  H    3.068824   6.150927   3.242760   3.423344   2.074541
    12  C    4.267972   6.345728   5.323511   4.500167   2.392006
    13  H    5.127847   7.215398   5.262721   5.261226   3.369185
    14  C    4.736522   6.184221   6.636038   4.979883   2.780782
    15  H    5.829323   6.963288   7.490849   5.995447   3.874878
    16  C    4.136502   5.324185   7.039312   4.508533   2.396506
    17  H    4.934818   5.533940   8.121709   5.278499   3.378254
    18  C    2.788431   4.553817   6.265095   3.394855   1.352408
    19  C    2.823284   3.938015   7.116347   3.612203   2.427332
    20  H    3.198390   2.893262   7.434478   4.433898   2.928318
    21  H    3.817472   4.627598   8.085449   4.244686   3.315397
    22  C    2.980547   7.521209   4.114625   1.348804   3.416822
    23  H    3.078126   7.545246   3.046705   2.081257   3.587538
    24  C    4.155811   8.027402   6.819766   2.405943   4.284228
    25  H    4.952074   8.429471   7.901644   3.384355   4.994170
    26  C    2.817724   6.707126   6.119834   1.352066   3.234808
    27  C    2.872103   5.803450   7.051059   2.412909   3.449769
    28  H    3.808578   6.182078   7.954863   3.303411   3.960511
    29  H    3.373960   6.178908   7.489948   2.919902   4.375460
    30  C    2.956583   5.898506   5.292353   3.620748   4.907655
    31  H    3.024331   6.370164   4.301638   3.542488   4.828764
    32  C    4.255113   6.543491   6.478263   4.835861   6.219923
    33  H    5.112696   7.443521   6.601110   5.578705   7.060267
    34  C    4.731115   6.314526   7.683795   5.381621   6.640323
    35  H    5.824098   7.083899   8.630039   6.421306   7.726376
    36  C    4.140084   5.381353   7.847109   4.906575   5.890000
    37  H    4.943742   5.524161   8.884789   5.691347   6.535608
    38  C    2.795899   4.612870   6.856731   3.720018   4.497041
    39  C    2.828140   3.909745   7.397225   3.813919   3.954629
    40  H    3.834018   4.556132   8.414917   4.488561   4.813329
    41  H    3.169213   2.852904   7.614277   4.555792   4.082574
    42  C    3.062733   6.570029   1.625326   3.544636   3.639453
    43  C    3.037636   1.630020   6.461459   4.959642   3.489456
    44  C    4.271862   8.744436   5.033096   2.401354   4.436906
    45  H    5.122037   9.625985   4.913326   3.374783   5.223945
    46  C    4.751930   8.976453   6.356266   2.798329   4.807773
    47  H    5.841732  10.009762   7.173839   3.892259   5.790432
                    6          7          8          9         10
     6  N    0.000000
     7  N    2.647977   0.000000
     8  N    2.894234   3.968886   0.000000
     9  N    2.724126   2.805182   2.826512   0.000000
    10  C    4.919939   4.035552   3.104866   3.644636   0.000000
    11  H    4.873305   4.577993   2.510312   3.825775   1.093638
    12  C    6.227258   4.960639   4.482913   4.750996   1.395054
    13  H    7.071972   6.002949   5.003995   5.600606   2.154583
    14  C    6.636915   4.847288   5.422514   5.078873   2.405962
    15  H    7.722086   5.838260   6.474845   6.104491   3.405871
    16  C    5.875875   3.750284   5.284154   4.423768   2.748317
    17  H    6.513352   4.133246   6.260385   5.099548   3.841491
    18  C    4.481873   2.465946   4.150150   3.212344   2.332647
    19  C    3.941710   1.481814   4.609755   3.032200   3.680127
    20  H    4.139287   2.105230   4.873109   2.681280   4.119414
    21  H    4.779175   2.149163   5.633598   4.111453   4.466251
    22  C    3.884452   4.056823   2.974264   4.870688   3.610847
    23  H    3.980649   4.605037   2.367890   4.778998   3.545775
    24  C    4.815781   3.774203   5.198939   5.948457   4.892798
    25  H    5.503957   4.148712   6.184726   6.615546   5.680576
    26  C    3.522869   2.488749   4.091397   4.581571   4.085989
    27  C    3.241292   1.483161   4.612096   4.169204   4.620178
    28  H    4.296882   2.144809   5.581569   4.921931   5.087960
    29  H    3.067929   2.101200   5.016066   4.608114   5.555885
    30  C    1.341737   3.968661   3.091878   3.657376   5.728687
    31  H    2.061851   4.488745   2.485386   3.870639   5.414311
    32  C    2.391759   4.905573   4.455096   4.714218   7.102230
    33  H    3.370179   5.944698   4.974364   5.578659   7.828130
    34  C    2.779472   4.810418   5.391685   4.986108   7.696491
    35  H    3.873553   5.806898   6.438835   5.996416   8.789877
    36  C    2.396046   3.730561   5.261741   4.305507   7.077030
    37  H    3.378342   4.135318   6.237182   4.953309   7.791575
    38  C    1.354010   2.437734   4.141952   3.125311   5.699087
    39  C    2.424150   1.484858   4.600066   2.941107   5.278388
    40  H    3.305816   2.152740   5.640217   4.016995   6.152953
    41  H    2.957687   2.117368   4.819275   2.551511   5.369029
    42  C    3.979243   5.090872   1.186492   3.870942   3.417906
    43  C    3.581899   3.311037   3.981898   1.183513   4.409751
    44  C    5.087721   4.984935   4.344648   6.183247   4.502893
    45  H    5.924963   6.026124   4.844612   6.987612   5.059278
    46  C    5.487250   4.878338   5.308698   6.651893   5.082221
    47  H    6.543521   5.869775   6.353696   7.732178   5.972777
                   11         12         13         14         15
    11  H    0.000000
    12  C    2.180552   0.000000
    13  H    2.511219   1.093033   0.000000
    14  C    3.413008   1.396804   2.177178   0.000000
    15  H    4.334175   2.170511   2.527015   1.094097   0.000000
    16  C    3.840908   2.405950   3.410241   1.397633   2.167401
    17  H    4.933466   3.408534   4.334439   2.174814   2.516456
    18  C    3.300559   2.750374   3.842625   2.407870   3.405121
    19  C    4.500208   4.256718   5.347424   3.815368   4.711417
    20  H    4.897580   4.678804   5.740680   4.232592   5.081268
    21  H    5.369498   4.814489   5.898955   4.102306   4.832594
    22  C    3.352374   4.664762   5.185825   5.395671   6.341885
    23  H    2.970359   4.691748   5.072049   5.647518   6.605088
    24  C    5.214279   5.542527   6.281840   5.615234   6.399457
    25  H    6.129569   6.187401   6.965142   6.036033   6.722374
    26  C    4.416310   4.962770   5.817712   5.095776   6.025258
    27  C    5.128988   5.461518   6.456751   5.320855   6.245046
    28  H    5.754564   5.689766   6.703947   5.290430   6.087628
    29  H    5.946564   6.493052   7.471353   6.410013   7.345276
    30  C    5.445276   7.100455   7.831060   7.685804   8.779301
    31  H    4.939240   6.807624   7.415973   7.572040   8.658138
    32  C    6.837509   8.464425   9.216341   8.987637  10.078450
    33  H    7.439646   9.213109   9.890494   9.839623  10.933355
    34  C    7.610254   8.994654   9.848923   9.321563  10.390505
    35  H    8.695162  10.085656  10.942326  10.391629  11.454955
    36  C    7.182139   8.281607   9.219771   8.429292   9.465134
    37  H    8.007390   8.913780   9.901088   8.910479   9.902282
    38  C    5.859945   6.888991   7.835391   7.046935   8.091517
    39  C    5.714359   6.265307   7.299893   6.149013   7.124803
    40  H    6.665284   7.038278   8.100895   6.762965   7.670957
    41  H    5.838904   6.290506   7.318336   6.128118   7.071055
    42  C    2.504133   4.675671   4.945484   5.823304   6.803722
    43  C    4.733546   5.305827   6.173816   5.413409   6.346463
    44  C    4.329808   5.284375   5.698584   5.913523   6.725267
    45  H    4.719228   5.760065   5.986308   6.525716   7.269985
    46  C    5.183618   5.697865   6.231584   6.015195   6.750310
    47  H    6.083118   6.435282   6.881519   6.692567   7.311946
                   16         17         18         19         20
    16  C    0.000000
    17  H    1.093739   0.000000
    18  C    1.395494   2.158616   0.000000
    19  C    2.550061   2.773310   1.510416   0.000000
    20  H    3.016795   3.152661   2.130059   1.104821   0.000000
    21  H    2.725260   2.537170   2.165915   1.106281   1.780782
    22  C    5.245070   6.107308   4.324184   4.830629   5.650429
    23  H    5.658256   6.617928   4.726302   5.345935   6.025074
    24  C    5.054770   5.494169   4.365193   4.427325   5.490591
    25  H    5.352302   5.584317   4.802929   4.680951   5.756263
    26  C    4.395973   4.932652   3.411474   3.336358   4.325851
    27  C    4.282913   4.587237   3.205213   2.475119   3.376765
    28  H    4.152979   4.210255   3.360795   2.564305   3.514995
    29  H    5.360470   5.629566   4.233314   3.337084   4.064291
    30  C    7.056539   7.764841   5.676416   5.263496   5.442081
    31  H    7.134208   7.955152   5.808512   5.676277   5.907930
    32  C    8.266951   8.893416   6.873316   6.258055   6.356165
    33  H    9.203145   9.879633   7.817117   7.292295   7.394823
    34  C    8.422776   8.897337   7.041199   6.148225   6.165934
    35  H    9.460743   9.891812   8.088076   7.126804   7.103756
    36  C    7.407447   7.770906   6.065080   4.999767   4.989818
    37  H    7.779221   8.000188   6.506969   5.265047   5.179228
    38  C    6.062432   6.494741   4.701132   3.740240   3.818206
    39  C    4.996820   5.254381   3.742601   2.493014   2.531367
    40  H    5.507236   5.574830   4.386960   2.977441   3.071305
    41  H    4.979498   5.195525   3.803317   2.566853   2.118840
    42  C    5.946919   6.988483   4.977341   5.646105   5.932079
    43  C    4.652759   5.142317   3.613793   3.211447   2.463409
    44  C    5.844706   6.614351   5.142772   5.680491   6.623029
    45  H    6.643564   7.457871   6.030069   6.687845   7.604790
    46  C    5.759381   6.335511   5.163323   5.516037   6.559678
    47  H    6.508628   7.006993   6.064188   6.436871   7.508270
                   21         22         23         24         25
    21  H    0.000000
    22  C    5.448382   0.000000
    23  H    6.106158   1.092013   0.000000
    24  C    4.471550   2.744706   3.835913   0.000000
    25  H    4.464475   3.837959   4.928601   1.093997   0.000000
    26  C    3.629175   2.323235   3.295506   1.394591   2.157574
    27  C    2.618481   3.664624   4.493152   2.540443   2.763017
    28  H    2.224423   4.455267   5.360666   2.728593   2.540895
    29  H    3.455464   4.098195   4.898426   2.970833   3.099432
    30  C    6.109779   4.215427   4.084313   5.541923   6.307347
    31  H    6.589716   3.813105   3.429313   5.642658   6.535002
    32  C    7.011958   5.428851   5.347422   6.476948   7.127291
    33  H    8.069212   5.967963   5.760562   7.222815   7.916638
    34  C    6.760033   6.205568   6.311496   6.730455   7.197220
    35  H    7.675958   7.209434   7.316253   7.631813   8.031625
    36  C    5.520723   5.961934   6.228044   6.107593   6.462067
    37  H    5.613226   6.824946   7.181448   6.619514   6.812476
    38  C    4.386928   4.871292   5.159296   5.130648   5.581411
    39  C    3.004052   5.133184   5.577258   4.900467   5.180371
    40  H    3.097225   5.815681   6.389355   5.083177   5.137489
    41  H    3.164480   5.847433   6.166401   5.824514   6.121977
    42  C    6.650326   3.254176   2.328548   5.809200   6.856890
    43  C    4.172459   5.989502   5.946503   6.805927   7.355929
    44  C    6.092808   1.394651   2.171697   2.399711   3.404324
    45  H    7.128093   2.150148   2.492568   3.405927   4.333461
    46  C    5.678656   2.409414   3.409298   1.397621   2.175388
    47  H    6.481917   3.409615   4.328795   2.169722   2.520872
                   26         27         28         29         30
    26  C    0.000000
    27  C    1.504199   0.000000
    28  H    2.165425   1.105082   0.000000
    29  H    2.110867   1.103741   1.769969   0.000000
    30  C    4.395247   4.375128   5.459427   4.050379   0.000000
    31  H    4.572353   4.867918   5.972200   4.704105   1.093846
    32  C    5.416795   5.219776   6.243297   4.640857   1.395007
    33  H    6.250457   6.202196   7.240474   5.612231   2.156915
    34  C    5.666955   5.118449   6.010222   4.380832   2.404761
    35  H    6.641599   6.050645   6.877954   5.222730   3.404825
    36  C    4.976985   4.132317   4.917325   3.434226   2.747978
    37  H    5.555221   4.491848   5.079521   3.736425   3.841194
    38  C    3.868996   3.057822   3.941922   2.652198   2.333553
    39  C    3.643348   2.433787   3.027644   2.385161   3.678145
    40  H    4.010853   2.592692   2.873269   2.303358   4.458570
    41  H    4.529512   3.367175   3.844649   3.468062   4.156966
    42  C    4.884259   5.621384   6.565181   6.043429   3.919839
    43  C    5.446524   4.782730   5.373164   5.200844   4.534684
    44  C    2.739762   4.239119   4.806928   4.637786   5.385211
    45  H    3.831835   5.329571   5.892010   5.699862   6.053171
    46  C    2.407195   3.806251   4.105463   4.188079   5.974818
    47  H    3.405750   4.703929   4.839093   5.033514   6.988337
                   31         32         33         34         35
    31  H    0.000000
    32  C    2.190516   0.000000
    33  H    2.530371   1.093158   0.000000
    34  C    3.418181   1.397079   2.176496   0.000000
    35  H    4.342265   2.170436   2.525253   1.094083   0.000000
    36  C    3.839799   2.407782   3.411385   1.398560   2.167854
    37  H    4.932154   3.410055   4.334850   2.175581   2.516678
    38  C    3.293666   2.752653   3.845109   2.408130   3.404961
    39  C    4.483883   4.260627   5.351586   3.821687   4.719120
    40  H    5.348032   4.817827   5.901880   4.115443   4.850665
    41  H    4.919293   4.721199   5.786072   4.266873   5.114159
    42  C    3.066097   5.210626   5.533458   6.299653   7.302100
    43  C    4.881392   5.394159   6.282704   5.432681   6.348780
    44  C    5.016206   6.474597   6.957523   7.192168   8.133321
    45  H    5.531733   7.119991   7.472117   7.959728   8.873203
    46  C    5.836286   6.957704   7.548301   7.439069   8.337862
    47  H    6.839442   7.907231   8.451871   8.365670   9.215720
                   36         37         38         39         40
    36  C    0.000000
    37  H    1.093758   0.000000
    38  C    1.394716   2.157909   0.000000
    39  C    2.557087   2.783953   1.511321   0.000000
    40  H    2.743759   2.570709   2.168856   1.106770   0.000000
    41  H    3.037791   3.161156   2.146172   1.102646   1.777767
    42  C    6.325126   7.336118   5.274903   5.782998   6.814112
    43  C    4.620613   5.057718   3.605309   3.148606   4.086390
    44  C    6.949552   7.740295   5.940419   6.122518   6.641401
    45  H    7.845853   8.684361   6.876597   7.148751   7.702888
    46  C    7.024079   7.659431   6.060325   6.033494   6.337254
    47  H    7.970140   8.558494   7.068331   7.014748   7.228209
                   41         42         43         44         45
    41  H    0.000000
    42  C    5.994907   0.000000
    43  C    2.361618   4.972431   0.000000
    44  C    6.930913   4.477973   7.264704   0.000000
    45  H    7.930324   4.714943   8.103746   1.093094   0.000000
    46  C    6.929097   5.645837   7.627827   1.396453   2.177372
    47  H    7.931976   6.609283   8.691427   2.172667   2.531357
                   46         47
    46  C    0.000000
    47  H    1.093964   0.000000
 Symmetry turned off by external request.
 Stoichiometry    C20H18FeN6S2
 Framework group  C1[X(C20H18FeN6S2)]
 Deg. of freedom   135
 Full point group                 C1      NOp   1
 Rotational constants (GHZ):           0.1678645           0.1469398           0.1280775
 Leave Link  202 at Sat Dec 24 02:09:18 2022, MaxMem=  1342177280 cpu:               0.1 elap:               0.1
 (Enter /aplic/Gaussian/g16b01_iqtc08/g16/l301.exe)
 Standard basis: def2SVP (5D, 7F)
 Ernie: Thresh=  0.10000D-02 Tol=  0.10000D-05 Strict=F.
   521 basis functions,   931 primitive gaussians,   554 cartesian basis functions
   119 alpha electrons      119 beta electrons
       nuclear repulsion energy      3825.3701308731 Hartrees.
 IExCor=  402 DFT=T Ex+Corr=B3LYP ExCW=0 ScaHFX=  0.150000
 ScaDFX=  0.850000  0.720000  1.000000  0.810000 ScalE2=  1.000000  1.000000
 IRadAn=      5 IRanWt=     -1 IRanGd=            0 ICorTp=0 IEmpDi=141
 NAtoms=   47 NActive=   47 NUniq=   47 SFac= 1.00D+00 NAtFMM=   60 NAOKFM=F Big=F
 Integral buffers will be    131072 words long.
 Raffenetti 2 integral format.
 Two-electron integral symmetry is turned off.
 R6Disp:  Grimme-D3(BJ) Dispersion energy=       -0.1414115361 Hartrees.
 Nuclear repulsion after empirical dispersion term =     3825.2287193370 Hartrees.
 Leave Link  301 at Sat Dec 24 02:09:18 2022, MaxMem=  1342177280 cpu:               0.6 elap:               0.1
 (Enter /aplic/Gaussian/g16b01_iqtc08/g16/l302.exe)
 NPDir=0 NMtPBC=     1 NCelOv=     1 NCel=       1 NClECP=     1 NCelD=      1
         NCelK=      1 NCelE2=     1 NClLst=     1 CellRange=     0.0.
 One-electron integrals computed using PRISM.
   1 Symmetry operations used in ECPInt.
 ECPInt:  NShTT=   28203 NPrTT=  109756 LenC2=   25774 LenP2D=   66841.
 LDataN:  DoStor=T MaxTD1= 6 Len=  172
 NBasis=   521 RedAO= T EigKep=  5.43D-04  NBF=   521
 NBsUse=   521 1.00D-06 EigRej= -1.00D+00 NBFU=   521
 Precomputing XC quadrature grid using
 IXCGrd= 4 IRadAn=           5 IRanWt=          -1 IRanGd=           0 AccXCQ= 0.00D+00.
 Generated NRdTot=       0 NPtTot=           0 NUsed=           0 NTot=          32
 NSgBfM=   544   543   543   544   544 MxSgAt=    47 MxSgA2=    47.
 Leave Link  302 at Sat Dec 24 02:09:19 2022, MaxMem=  1342177280 cpu:               6.8 elap:               1.0
 (Enter /aplic/Gaussian/g16b01_iqtc08/g16/l303.exe)
 DipDrv:  MaxL=1.
 Leave Link  303 at Sat Dec 24 02:09:20 2022, MaxMem=  1342177280 cpu:               0.6 elap:               0.1
 (Enter /aplic/Gaussian/g16b01_iqtc08/g16/l401.exe)
 ExpMin= 3.37D-02 ExpMax= 6.09D+04 ExpMxC= 9.15D+03 IAcc=3 IRadAn=         5 AccDes= 0.00D+00
 Harris functional with IExCor=  402 and IRadAn=       5 diagonalized for initial guess.
 HarFok:  IExCor=  402 AccDes= 0.00D+00 IRadAn=         5 IDoV= 1 UseB2=F ITyADJ=14
 ICtDFT=  3500011 ScaDFX=  1.000000  1.000000  1.000000  1.000000
 FoFCou: FMM=F IPFlag=           0 FMFlag=      100000 FMFlg1=           0
         NFxFlg=           0 DoJE=T BraDBF=F KetDBF=T FulRan=T
         wScrn=  0.000000 ICntrl=       500 IOpCl=  0 I1Cent=   200000004 NGrid=           0
         NMat0=    1 NMatS0=      1 NMatT0=    0 NMatD0=    1 NMtDS0=    0 NMtDT0=    0
 Symmetry not used in FoFCou.
 Harris En= -3160.47274906932    
 JPrj=0 DoOrth=F DoCkMO=F.
 Initial guess <Sx>= 0.0000 <Sy>= 0.0000 <Sz>= 0.0000 <S**2>=-0.0000 S=-0.0000
 Leave Link  401 at Sat Dec 24 02:09:23 2022, MaxMem=  1342177280 cpu:              24.5 elap:               3.6
 (Enter /aplic/Gaussian/g16b01_iqtc08/g16/l502.exe)
 Two-electron integral symmetry not used.
 UHF open shell SCF:
 Using DIIS extrapolation, IDIIS=  1040.
 NGot=  1342177280 LenX=  1341554989 LenY=  1341247519
 Requested convergence on RMS density matrix=1.00D-08 within 200 cycles.
 Requested convergence on MAX density matrix=1.00D-06.
 Requested convergence on             energy=1.00D-06.
 No special actions if energy rises.
 Fock matrices will be formed incrementally for  20 cycles.

 Cycle   1  Pass 1  IDiag  1:
 FoFJK:  IHMeth= 1 ICntrl=       0 DoSepK=F KAlg= 0 I1Cent=           0 FoldK=F
 IRaf= 850000000 NMat=       1 IRICut=       1 DoRegI=T DoRafI=F ISym2E= 0 IDoP0=0 IntGTp=1.
 FoFCou: FMM=F IPFlag=           0 FMFlag=      100000 FMFlg1=           0
         NFxFlg=           0 DoJE=F BraDBF=F KetDBF=F FulRan=T
         wScrn=  0.000000 ICntrl=         0 IOpCl=  1 I1Cent=           0 NGrid=           0
         NMat0=    1 NMatS0=      1 NMatT0=    0 NMatD0=    1 NMtDS0=    0 NMtDT0=    0
 Symmetry not used in FoFCou.
 E= -3159.11585089609    
 DIIS: error= 1.95D-02 at cycle   1 NSaved=   1.
 NSaved= 1 IEnMin= 1 EnMin= -3159.11585089609     IErMin= 1 ErrMin= 1.95D-02
 ErrMax= 1.95D-02  0.00D+00 EMaxC= 1.00D-01 BMatC= 1.96D+00 BMatP= 1.96D+00
 IDIUse=3 WtCom= 8.05D-01 WtEn= 1.95D-01
 Coeff-Com:  0.100D+01
 Coeff-En:   0.100D+01
 Coeff:      0.100D+01
 Gap=     0.185 Goal=   None    Shift=    0.000
 Gap=     0.185 Goal=   None    Shift=    0.000
 GapD=    0.185 DampG=1.000 DampE=0.250 DampFc=0.2500 IDamp=-1.
 Damping current iteration by 2.50D-01
 RMSDP=4.10D-03 MaxDP=1.96D-01              OVMax= 3.52D-01

 Cycle   2  Pass 1  IDiag  1:
 RMSU=  1.01D-03    CP:  9.91D-01
 E= -3159.25216528969     Delta-E=       -0.136314393601 Rises=F Damp=T
 DIIS: error= 1.05D-02 at cycle   2 NSaved=   2.
 NSaved= 2 IEnMin= 2 EnMin= -3159.25216528969     IErMin= 2 ErrMin= 1.05D-02
 ErrMax= 1.05D-02  0.00D+00 EMaxC= 1.00D-01 BMatC= 3.93D-01 BMatP= 1.96D+00
 IDIUse=3 WtCom= 8.95D-01 WtEn= 1.05D-01
 Coeff-Com: -0.147D+00 0.115D+01
 Coeff-En:   0.140D+00 0.860D+00
 Coeff:     -0.117D+00 0.112D+01
 Gap=     0.148 Goal=   None    Shift=    0.000
 Gap=     0.148 Goal=   None    Shift=    0.000
 RMSDP=2.97D-03 MaxDP=2.05D-01 DE=-1.36D-01 OVMax= 6.30D-01

 Cycle   3  Pass 1  IDiag  1:
 RMSU=  2.93D-03    CP:  9.73D-01  1.38D+00
 E= -3158.15244813213     Delta-E=        1.099717157561 Rises=F Damp=F
 DIIS: error= 1.34D-01 at cycle   3 NSaved=   3.
 NSaved= 3 IEnMin= 2 EnMin= -3159.25216528969     IErMin= 2 ErrMin= 1.05D-02
 ErrMax= 1.34D-01  0.00D+00 EMaxC= 1.00D-01 BMatC= 8.84D+00 BMatP= 3.93D-01
 IDIUse=2 WtCom= 0.00D+00 WtEn= 1.00D+00
 Coeff-En:   0.000D+00 0.849D+00 0.151D+00
 Coeff:      0.000D+00 0.849D+00 0.151D+00
 Gap=     0.137 Goal=   None    Shift=    0.000
 Gap=     0.137 Goal=   None    Shift=    0.000
 RMSDP=3.14D-03 MaxDP=2.91D-01 DE= 1.10D+00 OVMax= 4.98D-01

 Cycle   4  Pass 1  IDiag  1:
 RMSU=  1.40D-03    CP:  9.72D-01  2.00D+00  6.35D-02
 E= -3159.22380138818     Delta-E=       -1.071353256057 Rises=F Damp=F
 DIIS: error= 4.51D-02 at cycle   4 NSaved=   4.
 NSaved= 4 IEnMin= 2 EnMin= -3159.25216528969     IErMin= 2 ErrMin= 1.05D-02
 ErrMax= 4.51D-02  0.00D+00 EMaxC= 1.00D-01 BMatC= 2.26D+00 BMatP= 3.93D-01
 IDIUse=2 WtCom= 0.00D+00 WtEn= 1.00D+00
 Coeff-En:   0.000D+00 0.000D+00 0.308D+00 0.692D+00
 Coeff:      0.000D+00 0.000D+00 0.308D+00 0.692D+00
 Gap=     0.187 Goal=   None    Shift=    0.000
 Gap=     0.187 Goal=   None    Shift=    0.000
 RMSDP=1.85D-03 MaxDP=1.27D-01 DE=-1.07D+00 OVMax= 3.30D-01

 Cycle   5  Pass 1  IDiag  1:
 RMSU=  9.99D-04    CP:  9.82D-01  1.35D+00  3.17D-01  1.51D-01
 E= -3159.39430781528     Delta-E=       -0.170506427098 Rises=F Damp=F
 DIIS: error= 3.58D-02 at cycle   5 NSaved=   5.
 NSaved= 5 IEnMin= 5 EnMin= -3159.39430781528     IErMin= 2 ErrMin= 1.05D-02
 ErrMax= 3.58D-02  0.00D+00 EMaxC= 1.00D-01 BMatC= 1.05D+00 BMatP= 3.93D-01
 IDIUse=2 WtCom= 0.00D+00 WtEn= 1.00D+00
 EnCoef did    14 forward-backward iterations
 Coeff-En:   0.000D+00 0.000D+00 0.582D-01 0.436D+00 0.505D+00
 Coeff:      0.000D+00 0.000D+00 0.582D-01 0.436D+00 0.505D+00
 Gap=     0.075 Goal=   None    Shift=    0.000
 Gap=     0.075 Goal=   None    Shift=    0.000
 RMSDP=1.16D-03 MaxDP=6.91D-02 DE=-1.71D-01 OVMax= 1.14D-01

 Cycle   6  Pass 1  IDiag  1:
 RMSU=  6.85D-04    CP:  9.78D-01  1.31D+00  3.51D-01  5.71D-01  2.84D-01
 E= -3159.48728624048     Delta-E=       -0.092978425198 Rises=F Damp=F
 DIIS: error= 2.05D-02 at cycle   6 NSaved=   6.
 NSaved= 6 IEnMin= 6 EnMin= -3159.48728624048     IErMin= 2 ErrMin= 1.05D-02
 ErrMax= 2.05D-02  0.00D+00 EMaxC= 1.00D-01 BMatC= 6.45D-01 BMatP= 3.93D-01
 IDIUse=2 WtCom= 0.00D+00 WtEn= 1.00D+00
 EnCoef did     4 forward-backward iterations
 Coeff-En:   0.000D+00 0.000D+00 0.000D+00 0.257D+00 0.365D+00 0.378D+00
 Coeff:      0.000D+00 0.000D+00 0.000D+00 0.257D+00 0.365D+00 0.378D+00
 Gap=     0.098 Goal=   None    Shift=    0.000
 Gap=     0.098 Goal=   None    Shift=    0.000
 RMSDP=9.30D-04 MaxDP=6.16D-02 DE=-9.30D-02 OVMax= 1.12D-01

 Cycle   7  Pass 1  IDiag  1:
 RMSU=  2.69D-04    CP:  9.77D-01  1.74D+00  1.84D-01  5.38D-01  5.42D-01
                    CP:  2.08D-01
 E= -3159.59459790641     Delta-E=       -0.107311665934 Rises=F Damp=F
 DIIS: error= 1.08D-02 at cycle   7 NSaved=   7.
 NSaved= 7 IEnMin= 7 EnMin= -3159.59459790641     IErMin= 2 ErrMin= 1.05D-02
 ErrMax= 1.08D-02  0.00D+00 EMaxC= 1.00D-01 BMatC= 1.31D-01 BMatP= 3.93D-01
 IDIUse=3 WtCom= 8.92D-01 WtEn= 1.08D-01
 Coeff-Com:  0.880D-02-0.461D-01-0.218D-01 0.818D-02 0.134D+00 0.309D+00
 Coeff-Com:  0.607D+00
 Coeff-En:   0.000D+00 0.000D+00 0.000D+00 0.000D+00 0.000D+00 0.228D+00
 Coeff-En:   0.772D+00
 Coeff:      0.785D-02-0.411D-01-0.195D-01 0.730D-02 0.120D+00 0.301D+00
 Coeff:      0.625D+00
 Gap=     0.082 Goal=   None    Shift=    0.000
 Gap=     0.082 Goal=   None    Shift=    0.000
 RMSDP=3.60D-04 MaxDP=2.41D-02 DE=-1.07D-01 OVMax= 4.30D-02

 Cycle   8  Pass 1  IDiag  1:
 RMSU=  1.19D-04    CP:  9.78D-01  1.56D+00  2.51D-01  5.39D-01  5.66D-01
                    CP:  4.62D-01  6.06D-01
 E= -3159.61713318186     Delta-E=       -0.022535275448 Rises=F Damp=F
 DIIS: error= 2.93D-03 at cycle   8 NSaved=   8.
 NSaved= 8 IEnMin= 8 EnMin= -3159.61713318186     IErMin= 8 ErrMin= 2.93D-03
 ErrMax= 2.93D-03  0.00D+00 EMaxC= 1.00D-01 BMatC= 8.36D-03 BMatP= 1.31D-01
 IDIUse=3 WtCom= 9.71D-01 WtEn= 2.93D-02
 Coeff-Com:  0.152D-01-0.276D-01-0.615D-02-0.176D-01 0.157D-01 0.127D+00
 Coeff-Com:  0.416D+00 0.477D+00
 Coeff-En:   0.000D+00 0.000D+00 0.000D+00 0.000D+00 0.000D+00 0.000D+00
 Coeff-En:   0.944D-01 0.906D+00
 Coeff:      0.148D-01-0.268D-01-0.597D-02-0.171D-01 0.152D-01 0.124D+00
 Coeff:      0.406D+00 0.490D+00
 Gap=     0.083 Goal=   None    Shift=    0.000
 Gap=     0.083 Goal=   None    Shift=    0.000
 RMSDP=1.03D-04 MaxDP=6.68D-03 DE=-2.25D-02 OVMax= 1.31D-02

 Cycle   9  Pass 1  IDiag  1:
 RMSU=  4.36D-05    CP:  9.78D-01  1.59D+00  2.31D-01  5.45D-01  5.47D-01
                    CP:  4.45D-01  7.09D-01  5.67D-01
 E= -3159.61878088969     Delta-E=       -0.001647707832 Rises=F Damp=F
 DIIS: error= 6.44D-04 at cycle   9 NSaved=   9.
 NSaved= 9 IEnMin= 9 EnMin= -3159.61878088969     IErMin= 9 ErrMin= 6.44D-04
 ErrMax= 6.44D-04  0.00D+00 EMaxC= 1.00D-01 BMatC= 5.26D-04 BMatP= 8.36D-03
 IDIUse=3 WtCom= 9.94D-01 WtEn= 6.44D-03
 Coeff-Com:  0.106D-01-0.185D-01 0.227D-03-0.144D-01-0.458D-02 0.354D-01
 Coeff-Com:  0.172D+00 0.260D+00 0.559D+00
 Coeff-En:   0.000D+00 0.000D+00 0.000D+00 0.000D+00 0.000D+00 0.000D+00
 Coeff-En:   0.000D+00 0.444D-01 0.956D+00
 Coeff:      0.105D-01-0.183D-01 0.226D-03-0.143D-01-0.455D-02 0.351D-01
 Coeff:      0.171D+00 0.258D+00 0.562D+00
 Gap=     0.083 Goal=   None    Shift=    0.000
 Gap=     0.083 Goal=   None    Shift=    0.000
 RMSDP=2.30D-05 MaxDP=1.21D-03 DE=-1.65D-03 OVMax= 1.78D-03

 Cycle  10  Pass 1  IDiag  1:
 RMSU=  1.35D-05    CP:  9.78D-01  1.59D+00  2.33D-01  5.43D-01  5.49D-01
                    CP:  4.42D-01  7.39D-01  6.32D-01  6.92D-01
 E= -3159.61887340830     Delta-E=       -0.000092518603 Rises=F Damp=F
 DIIS: error= 3.15D-04 at cycle  10 NSaved=  10.
 NSaved=10 IEnMin=10 EnMin= -3159.61887340830     IErMin=10 ErrMin= 3.15D-04
 ErrMax= 3.15D-04  0.00D+00 EMaxC= 1.00D-01 BMatC= 9.96D-05 BMatP= 5.26D-04
 IDIUse=3 WtCom= 9.97D-01 WtEn= 3.15D-03
 Coeff-Com:  0.518D-02-0.975D-02 0.723D-03-0.862D-02-0.269D-02 0.136D-01
 Coeff-Com:  0.719D-01 0.116D+00 0.336D+00 0.478D+00
 Coeff-En:   0.000D+00 0.000D+00 0.000D+00 0.000D+00 0.000D+00 0.000D+00
 Coeff-En:   0.000D+00 0.000D+00 0.000D+00 0.100D+01
 Coeff:      0.516D-02-0.972D-02 0.721D-03-0.859D-02-0.268D-02 0.136D-01
 Coeff:      0.717D-01 0.116D+00 0.335D+00 0.480D+00
 Gap=     0.083 Goal=   None    Shift=    0.000
 Gap=     0.083 Goal=   None    Shift=    0.000
 RMSDP=8.85D-06 MaxDP=5.42D-04 DE=-9.25D-05 OVMax= 1.10D-03

 Cycle  11  Pass 1  IDiag  1:
 RMSU=  5.96D-06    CP:  9.78D-01  1.59D+00  2.33D-01  5.42D-01  5.50D-01
                    CP:  4.42D-01  7.48D-01  6.34D-01  7.29D-01  6.36D-01
 E= -3159.61888875053     Delta-E=       -0.000015342236 Rises=F Damp=F
 DIIS: error= 1.80D-04 at cycle  11 NSaved=  11.
 NSaved=11 IEnMin=11 EnMin= -3159.61888875053     IErMin=11 ErrMin= 1.80D-04
 ErrMax= 1.80D-04  0.00D+00 EMaxC= 1.00D-01 BMatC= 2.71D-05 BMatP= 9.96D-05
 IDIUse=3 WtCom= 9.98D-01 WtEn= 1.80D-03
 Coeff-Com:  0.120D-03-0.127D-02 0.307D-03-0.263D-02 0.718D-03 0.299D-02
 Coeff-Com:  0.481D-02 0.124D-01 0.596D-01 0.279D+00 0.644D+00
 Coeff-En:   0.000D+00 0.000D+00 0.000D+00 0.000D+00 0.000D+00 0.000D+00
 Coeff-En:   0.000D+00 0.000D+00 0.000D+00 0.000D+00 0.100D+01
 Coeff:      0.120D-03-0.127D-02 0.306D-03-0.262D-02 0.717D-03 0.298D-02
 Coeff:      0.480D-02 0.124D-01 0.595D-01 0.279D+00 0.644D+00
 Gap=     0.083 Goal=   None    Shift=    0.000
 Gap=     0.083 Goal=   None    Shift=    0.000
 RMSDP=4.63D-06 MaxDP=2.34D-04 DE=-1.53D-05 OVMax= 3.39D-04

 Cycle  12  Pass 1  IDiag  1:
 RMSU=  2.78D-06    CP:  9.78D-01  1.59D+00  2.34D-01  5.41D-01  5.51D-01
                    CP:  4.44D-01  7.49D-01  6.44D-01  7.47D-01  7.21D-01
                    CP:  7.31D-01
 E= -3159.61889326903     Delta-E=       -0.000004518492 Rises=F Damp=F
 DIIS: error= 4.39D-05 at cycle  12 NSaved=  12.
 NSaved=12 IEnMin=12 EnMin= -3159.61889326903     IErMin=12 ErrMin= 4.39D-05
 ErrMax= 4.39D-05  0.00D+00 EMaxC= 1.00D-01 BMatC= 2.84D-06 BMatP= 2.71D-05
 IDIUse=1 WtCom= 1.00D+00 WtEn= 0.00D+00
 Coeff-Com: -0.964D-03 0.967D-03 0.431D-04-0.527D-03 0.118D-02 0.674D-03
 Coeff-Com: -0.712D-02-0.778D-02-0.146D-01 0.937D-01 0.397D+00 0.537D+00
 Coeff:     -0.964D-03 0.967D-03 0.431D-04-0.527D-03 0.118D-02 0.674D-03
 Coeff:     -0.712D-02-0.778D-02-0.146D-01 0.937D-01 0.397D+00 0.537D+00
 Gap=     0.083 Goal=   None    Shift=    0.000
 Gap=     0.083 Goal=   None    Shift=    0.000
 RMSDP=1.88D-06 MaxDP=9.48D-05 DE=-4.52D-06 OVMax= 1.69D-04

 Cycle  13  Pass 1  IDiag  1:
 RMSU=  1.05D-06    CP:  9.78D-01  1.59D+00  2.34D-01  5.41D-01  5.51D-01
                    CP:  4.45D-01  7.48D-01  6.47D-01  7.51D-01  7.45D-01
                    CP:  8.45D-01  6.54D-01
 E= -3159.61889382016     Delta-E=       -0.000000551139 Rises=F Damp=F
 DIIS: error= 8.18D-06 at cycle  13 NSaved=  13.
 NSaved=13 IEnMin=13 EnMin= -3159.61889382016     IErMin=13 ErrMin= 8.18D-06
 ErrMax= 8.18D-06  0.00D+00 EMaxC= 1.00D-01 BMatC= 2.49D-07 BMatP= 2.84D-06
 IDIUse=1 WtCom= 1.00D+00 WtEn= 0.00D+00
 Coeff-Com: -0.638D-03 0.806D-03-0.180D-04-0.667D-04 0.601D-03 0.205D-03
 Coeff-Com: -0.388D-02-0.459D-02-0.139D-01 0.130D-01 0.127D+00 0.315D+00
 Coeff-Com:  0.566D+00
 Coeff:     -0.638D-03 0.806D-03-0.180D-04-0.667D-04 0.601D-03 0.205D-03
 Coeff:     -0.388D-02-0.459D-02-0.139D-01 0.130D-01 0.127D+00 0.315D+00
 Coeff:      0.566D+00
 Gap=     0.083 Goal=   None    Shift=    0.000
 Gap=     0.083 Goal=   None    Shift=    0.000
 RMSDP=6.32D-07 MaxDP=4.54D-05 DE=-5.51D-07 OVMax= 7.70D-05

 Cycle  14  Pass 1  IDiag  1:
 RMSU=  4.06D-07    CP:  9.78D-01  1.59D+00  2.34D-01  5.41D-01  5.51D-01
                    CP:  4.45D-01  7.49D-01  6.47D-01  7.53D-01  7.58D-01
                    CP:  8.63D-01  7.16D-01  7.51D-01
 E= -3159.61889387954     Delta-E=       -0.000000059373 Rises=F Damp=F
 DIIS: error= 1.91D-06 at cycle  14 NSaved=  14.
 NSaved=14 IEnMin=14 EnMin= -3159.61889387954     IErMin=14 ErrMin= 1.91D-06
 ErrMax= 1.91D-06  0.00D+00 EMaxC= 1.00D-01 BMatC= 2.19D-08 BMatP= 2.49D-07
 IDIUse=1 WtCom= 1.00D+00 WtEn= 0.00D+00
 Coeff-Com: -0.261D-03 0.364D-03-0.897D-05 0.746D-05 0.177D-03-0.234D-04
 Coeff-Com: -0.140D-02-0.167D-02-0.589D-02-0.411D-02 0.221D-01 0.113D+00
 Coeff-Com:  0.318D+00 0.559D+00
 Coeff:     -0.261D-03 0.364D-03-0.897D-05 0.746D-05 0.177D-03-0.234D-04
 Coeff:     -0.140D-02-0.167D-02-0.589D-02-0.411D-02 0.221D-01 0.113D+00
 Coeff:      0.318D+00 0.559D+00
 Gap=     0.083 Goal=   None    Shift=    0.000
 Gap=     0.083 Goal=   None    Shift=    0.000
 RMSDP=2.53D-07 MaxDP=1.27D-05 DE=-5.94D-08 OVMax= 3.03D-05

 Cycle  15  Pass 1  IDiag  1:
 RMSU=  1.91D-07    CP:  9.78D-01  1.59D+00  2.34D-01  5.41D-01  5.51D-01
                    CP:  4.45D-01  7.49D-01  6.47D-01  7.54D-01  7.58D-01
                    CP:  8.66D-01  7.45D-01  8.02D-01  8.33D-01
 E= -3159.61889388474     Delta-E=       -0.000000005207 Rises=F Damp=F
 DIIS: error= 1.53D-06 at cycle  15 NSaved=  15.
 NSaved=15 IEnMin=15 EnMin= -3159.61889388474     IErMin=15 ErrMin= 1.53D-06
 ErrMax= 1.53D-06  0.00D+00 EMaxC= 1.00D-01 BMatC= 5.66D-09 BMatP= 2.19D-08
 IDIUse=1 WtCom= 1.00D+00 WtEn= 0.00D+00
 Coeff-Com: -0.881D-04 0.136D-03-0.242D-05 0.159D-04 0.266D-04-0.731D-04
 Coeff-Com: -0.418D-03-0.546D-03-0.212D-02-0.524D-02-0.566D-02 0.290D-01
 Coeff-Com:  0.134D+00 0.373D+00 0.478D+00
 Coeff:     -0.881D-04 0.136D-03-0.242D-05 0.159D-04 0.266D-04-0.731D-04
 Coeff:     -0.418D-03-0.546D-03-0.212D-02-0.524D-02-0.566D-02 0.290D-01
 Coeff:      0.134D+00 0.373D+00 0.478D+00
 Gap=     0.083 Goal=   None    Shift=    0.000
 Gap=     0.083 Goal=   None    Shift=    0.000
 RMSDP=1.23D-07 MaxDP=6.47D-06 DE=-5.21D-09 OVMax= 1.70D-05

 Cycle  16  Pass 1  IDiag  1:
 RMSU=  9.48D-08    CP:  9.78D-01  1.59D+00  2.34D-01  5.41D-01  5.51D-01
                    CP:  4.45D-01  7.49D-01  6.48D-01  7.54D-01  7.58D-01
                    CP:  8.70D-01  7.53D-01  8.33D-01  9.19D-01  8.71D-01
 E= -3159.61889388624     Delta-E=       -0.000000001496 Rises=F Damp=F
 DIIS: error= 7.51D-07 at cycle  16 NSaved=  16.
 NSaved=16 IEnMin=16 EnMin= -3159.61889388624     IErMin=16 ErrMin= 7.51D-07
 ErrMax= 7.51D-07  0.00D+00 EMaxC= 1.00D-01 BMatC= 1.25D-09 BMatP= 5.66D-09
 IDIUse=1 WtCom= 1.00D+00 WtEn= 0.00D+00
 Coeff-Com:  0.438D-05 0.158D-05 0.635D-06 0.909D-05-0.259D-04-0.485D-04
 Coeff-Com:  0.686D-04 0.174D-04-0.559D-04-0.265D-02-0.993D-02-0.103D-01
 Coeff-Com:  0.728D-02 0.991D-01 0.336D+00 0.580D+00
 Coeff:      0.438D-05 0.158D-05 0.635D-06 0.909D-05-0.259D-04-0.485D-04
 Coeff:      0.686D-04 0.174D-04-0.559D-04-0.265D-02-0.993D-02-0.103D-01
 Coeff:      0.728D-02 0.991D-01 0.336D+00 0.580D+00
 Gap=     0.083 Goal=   None    Shift=    0.000
 Gap=     0.083 Goal=   None    Shift=    0.000
 RMSDP=6.85D-08 MaxDP=5.58D-06 DE=-1.50D-09 OVMax= 1.40D-05

 Cycle  17  Pass 1  IDiag  1:
 RMSU=  4.39D-08    CP:  9.78D-01  1.59D+00  2.34D-01  5.41D-01  5.51D-01
                    CP:  4.45D-01  7.49D-01  6.48D-01  7.54D-01  7.59D-01
                    CP:  8.72D-01  7.58D-01  8.54D-01  9.69D-01  1.02D+00
                    CP:  9.04D-01
 E= -3159.61889388668     Delta-E=       -0.000000000438 Rises=F Damp=F
 DIIS: error= 1.96D-07 at cycle  17 NSaved=  17.
 NSaved=17 IEnMin=17 EnMin= -3159.61889388668     IErMin=17 ErrMin= 1.96D-07
 ErrMax= 1.96D-07  0.00D+00 EMaxC= 1.00D-01 BMatC= 2.40D-10 BMatP= 1.25D-09
 IDIUse=1 WtCom= 1.00D+00 WtEn= 0.00D+00
 Coeff-Com:  0.196D-04-0.265D-04 0.719D-06 0.218D-05-0.191D-04-0.124D-04
 Coeff-Com:  0.124D-03 0.105D-03 0.340D-03-0.608D-03-0.483D-02-0.116D-01
 Coeff-Com: -0.211D-01-0.132D-01 0.110D+00 0.372D+00 0.569D+00
 Coeff:      0.196D-04-0.265D-04 0.719D-06 0.218D-05-0.191D-04-0.124D-04
 Coeff:      0.124D-03 0.105D-03 0.340D-03-0.608D-03-0.483D-02-0.116D-01
 Coeff:     -0.211D-01-0.132D-01 0.110D+00 0.372D+00 0.569D+00
 Gap=     0.083 Goal=   None    Shift=    0.000
 Gap=     0.083 Goal=   None    Shift=    0.000
 RMSDP=3.34D-08 MaxDP=3.53D-06 DE=-4.38D-10 OVMax= 7.36D-06

 Cycle  18  Pass 1  IDiag  1:
 RMSU=  2.19D-08    CP:  9.78D-01  1.59D+00  2.34D-01  5.41D-01  5.51D-01
                    CP:  4.45D-01  7.49D-01  6.48D-01  7.54D-01  7.60D-01
                    CP:  8.73D-01  7.59D-01  8.62D-01  9.99D-01  1.09D+00
                    CP:  1.02D+00  1.04D+00
 E= -3159.61889388684     Delta-E=       -0.000000000163 Rises=F Damp=F
 DIIS: error= 1.05D-07 at cycle  18 NSaved=  18.
 NSaved=18 IEnMin=18 EnMin= -3159.61889388684     IErMin=18 ErrMin= 1.05D-07
 ErrMax= 1.05D-07  0.00D+00 EMaxC= 1.00D-01 BMatC= 4.29D-11 BMatP= 2.40D-10
 IDIUse=1 WtCom= 1.00D+00 WtEn= 0.00D+00
 Coeff-Com:  0.124D-04-0.177D-04 0.268D-06 0.153D-06-0.738D-05 0.271D-05
 Coeff-Com:  0.653D-04 0.637D-04 0.223D-03 0.612D-04-0.119D-02-0.511D-02
 Coeff-Com: -0.139D-01-0.241D-01-0.935D-03 0.952D-01 0.303D+00 0.647D+00
 Coeff:      0.124D-04-0.177D-04 0.268D-06 0.153D-06-0.738D-05 0.271D-05
 Coeff:      0.653D-04 0.637D-04 0.223D-03 0.612D-04-0.119D-02-0.511D-02
 Coeff:     -0.139D-01-0.241D-01-0.935D-03 0.952D-01 0.303D+00 0.647D+00
 Gap=     0.083 Goal=   None    Shift=    0.000
 Gap=     0.083 Goal=   None    Shift=    0.000
 RMSDP=2.00D-08 MaxDP=2.50D-06 DE=-1.63D-10 OVMax= 4.59D-06

 Cycle  19  Pass 1  IDiag  1:
 RMSU=  1.11D-08    CP:  9.78D-01  1.59D+00  2.34D-01  5.41D-01  5.51D-01
                    CP:  4.45D-01  7.49D-01  6.48D-01  7.54D-01  7.60D-01
                    CP:  8.73D-01  7.60D-01  8.65D-01  1.02D+00  1.13D+00
                    CP:  1.11D+00  1.22D+00  1.07D+00
 E= -3159.61889388684     Delta-E=       -0.000000000003 Rises=F Damp=F
 DIIS: error= 5.21D-08 at cycle  19 NSaved=  19.
 NSaved=19 IEnMin=19 EnMin= -3159.61889388684     IErMin=19 ErrMin= 5.21D-08
 ErrMax= 5.21D-08  0.00D+00 EMaxC= 1.00D-01 BMatC= 2.00D-11 BMatP= 4.29D-11
 IDIUse=1 WtCom= 1.00D+00 WtEn= 0.00D+00
 Coeff-Com:  0.355D-05-0.531D-05-0.474D-07-0.690D-06 0.223D-06 0.706D-05
 Coeff-Com:  0.130D-04 0.234D-04 0.801D-04 0.245D-03 0.669D-03 0.568D-04
 Coeff-Com: -0.315D-02-0.117D-01-0.356D-01-0.595D-01 0.160D-01 0.465D+00
 Coeff-Com:  0.628D+00
 Coeff:      0.355D-05-0.531D-05-0.474D-07-0.690D-06 0.223D-06 0.706D-05
 Coeff:      0.130D-04 0.234D-04 0.801D-04 0.245D-03 0.669D-03 0.568D-04
 Coeff:     -0.315D-02-0.117D-01-0.356D-01-0.595D-01 0.160D-01 0.465D+00
 Coeff:      0.628D+00
 Gap=     0.083 Goal=   None    Shift=    0.000
 Gap=     0.083 Goal=   None    Shift=    0.000
 RMSDP=1.34D-08 MaxDP=1.84D-06 DE=-2.73D-12 OVMax= 3.20D-06

 Cycle  20  Pass 1  IDiag  1:
 RMSU=  5.54D-09    CP:  9.78D-01  1.59D+00  2.34D-01  5.41D-01  5.51D-01
                    CP:  4.45D-01  7.49D-01  6.48D-01  7.54D-01  7.60D-01
                    CP:  8.73D-01  7.61D-01  8.68D-01  1.03D+00  1.15D+00
                    CP:  1.15D+00  1.36D+00  1.35D+00  1.01D+00
 E= -3159.61889388687     Delta-E=       -0.000000000029 Rises=F Damp=F
 DIIS: error= 3.77D-08 at cycle  20 NSaved=  20.
 NSaved=20 IEnMin=20 EnMin= -3159.61889388687     IErMin=20 ErrMin= 3.77D-08
 ErrMax= 3.77D-08  0.00D+00 EMaxC= 1.00D-01 BMatC= 3.45D-12 BMatP= 2.00D-11
 IDIUse=1 WtCom= 1.00D+00 WtEn= 0.00D+00
 Coeff-Com: -0.120D-05 0.168D-05-0.967D-07-0.287D-06 0.190D-05 0.294D-05
 Coeff-Com: -0.101D-04-0.201D-05-0.627D-05 0.142D-03 0.710D-03 0.142D-02
 Coeff-Com:  0.194D-02 0.210D-03-0.179D-01-0.590D-01-0.762D-01 0.740D-01
 Coeff-Com:  0.314D+00 0.761D+00
 Coeff:     -0.120D-05 0.168D-05-0.967D-07-0.287D-06 0.190D-05 0.294D-05
 Coeff:     -0.101D-04-0.201D-05-0.627D-05 0.142D-03 0.710D-03 0.142D-02
 Coeff:      0.194D-02 0.210D-03-0.179D-01-0.590D-01-0.762D-01 0.740D-01
 Coeff:      0.314D+00 0.761D+00
 Gap=     0.083 Goal=   None    Shift=    0.000
 Gap=     0.083 Goal=   None    Shift=    0.000
 RMSDP=7.68D-09 MaxDP=1.11D-06 DE=-2.91D-11 OVMax= 1.97D-06

 Cycle  21  Pass 1  IDiag  1:
 Restarting incremental Fock formation.
 E= -3159.61889388685     Delta-E=        0.000000000019 Rises=F Damp=F
 DIIS: error= 1.80D-08 at cycle  21 NSaved=  20.
 NSaved=20 IEnMin=19 EnMin= -3159.61889388687     IErMin=20 ErrMin= 1.80D-08
 ErrMax= 1.80D-08  0.00D+00 EMaxC= 1.00D-01 BMatC= 8.73D-13 BMatP= 3.45D-12
 IDIUse=1 WtCom= 1.00D+00 WtEn= 0.00D+00
 Coeff-Com: -0.105D-05 0.154D-05-0.591D-07 0.702D-06-0.297D-07-0.701D-05
 Coeff-Com: -0.383D-05-0.924D-05 0.494D-04 0.267D-03 0.660D-03 0.128D-02
 Coeff-Com:  0.159D-02-0.364D-02-0.196D-01-0.410D-01-0.389D-01 0.485D-01
 Coeff-Com:  0.414D+00 0.637D+00
 Coeff:     -0.105D-05 0.154D-05-0.591D-07 0.702D-06-0.297D-07-0.701D-05
 Coeff:     -0.383D-05-0.924D-05 0.494D-04 0.267D-03 0.660D-03 0.128D-02
 Coeff:      0.159D-02-0.364D-02-0.196D-01-0.410D-01-0.389D-01 0.485D-01
 Coeff:      0.414D+00 0.637D+00
 Gap=     0.083 Goal=   None    Shift=    0.000
 Gap=     0.083 Goal=   None    Shift=    0.000
 RMSDP=2.86D-09 MaxDP=3.64D-07 DE= 1.91D-11 OVMax= 6.64D-07

 SCF Done:  E(UB3LYP) =  -3159.61889389     A.U. after   21 cycles
            NFock= 21  Conv=0.29D-08     -V/T= 2.0050
 <Sx>= 0.0000 <Sy>= 0.0000 <Sz>= 0.0000 <S**2>=-0.0000 S=-0.0000
 <L.S>=  0.00000000000    
 KE= 3.143744119451D+03 PE=-1.510281748020D+04 EE= 4.974225747529D+03
 Annihilation of the first spin contaminant:
 S**2 before annihilation    -0.0000,   after     0.0000
 Leave Link  502 at Sat Dec 24 02:17:08 2022, MaxMem=  1342177280 cpu:            3248.1 elap:             464.2
 (Enter /aplic/Gaussian/g16b01_iqtc08/g16/l508.exe)
 QCSCF skips out because SCF is already converged.
 Leave Link  508 at Sat Dec 24 02:17:08 2022, MaxMem=  1342177280 cpu:               0.1 elap:               0.1
 (Enter /aplic/Gaussian/g16b01_iqtc08/g16/l801.exe)
 DoSCS=F DFT=T ScalE2(SS,OS)=  1.000000  1.000000
 Range of M.O.s used for correlation:     1   521
 NBasis=   521 NAE=   119 NBE=   119 NFC=     0 NFV=     0
 NROrb=    521 NOA=   119 NOB=   119 NVA=   402 NVB=   402

 **** Warning!!: The smallest alpha delta epsilon is  0.82797945D-01


 **** Warning!!: The smallest beta delta epsilon is  0.82797945D-01

 Leave Link  801 at Sat Dec 24 02:17:08 2022, MaxMem=  1342177280 cpu:               0.3 elap:               0.1
 (Enter /aplic/Gaussian/g16b01_iqtc08/g16/l1101.exe)
 Using compressed storage, NAtomX=    47.
 Will process     48 centers per pass.
   1 Symmetry operations used in ECPInt.
 ECPInt:  NShTT=   28203 NPrTT=  109756 LenC2=   25774 LenP2D=   66841.
 LDataN:  DoStor=T MaxTD1= 7 Len=  274
 R6Disp: Adding Grimme-D3(BJ) dispersion energy 1st derivatives to the gradient.
 Leave Link 1101 at Sat Dec 24 02:17:10 2022, MaxMem=  1342177280 cpu:              10.5 elap:               1.6
 (Enter /aplic/Gaussian/g16b01_iqtc08/g16/l1102.exe)
 Symmetrizing basis deriv contribution to polar:
 IMax=3 JMax=2 DiffMx= 0.00D+00
 Leave Link 1102 at Sat Dec 24 02:17:10 2022, MaxMem=  1342177280 cpu:               0.6 elap:               0.1
 (Enter /aplic/Gaussian/g16b01_iqtc08/g16/l1110.exe)
 Forming Gx(P) for the SCF density, NAtomX=    47.
 Integral derivatives from FoFJK, PRISM(SPDF).
 Do as many integral derivatives as possible in FoFJK.
 G2DrvN: MDV=    1342173196.
 G2DrvN: will do    48 centers at a time, making    1 passes.
 Calling FoFCou, ICntrl=  3107 FMM=F I1Cent=   0 AccDes= 0.00D+00.
 FoFJK:  IHMeth= 1 ICntrl=    3107 DoSepK=F KAlg= 0 I1Cent=           0 FoldK=F
 IRaf=         0 NMat=       1 IRICut=       1 DoRegI=T DoRafI=F ISym2E= 0 IDoP0=0 IntGTp=1.
 FoFCou: FMM=F IPFlag=           0 FMFlag=      100000 FMFlg1=           0
         NFxFlg=           0 DoJE=F BraDBF=F KetDBF=F FulRan=T
         wScrn=  0.000000 ICntrl=      3107 IOpCl=  1 I1Cent=           0 NGrid=           0
         NMat0=    1 NMatS0=      1 NMatT0=    0 NMatD0=    1 NMtDS0=    0 NMtDT0=    0
 Symmetry not used in FoFCou.
 End of G2Drv F.D. properties file   721 does not exist.
 End of G2Drv F.D. properties file   722 does not exist.
 End of G2Drv F.D. properties file   788 does not exist.
 Leave Link 1110 at Sat Dec 24 02:28:36 2022, MaxMem=  1342177280 cpu:            4798.0 elap:             685.7
 (Enter /aplic/Gaussian/g16b01_iqtc08/g16/l1002.exe)
 Minotr:  UHF open shell wavefunction.
          IDoAtm=11111111111111111111111111111111111111111111111
          Direct CPHF calculation.
          Differentiating once with respect to electric field.
                with respect to dipole field.
          Differentiating once with respect to nuclear coordinates.
          Requested convergence is 1.0D-08 RMS, and 1.0D-07 maximum.
          Secondary convergence is 1.0D-12 RMS, and 1.0D-12 maximum.
          NewPWx=T KeepS1=F KeepF1=F KeepIn=T MapXYZ=F SortEE=F KeepMc=T.
        14420 words used for storage of precomputed grid.
 Two-electron integral symmetry not used.
          MDV=    1342177280 using IRadAn=       1.
          Solving linear equations simultaneously, MaxMat=     378.
 FoF2E skips out because all densities are zero.
 CalDSu exits because no D1Ps are significant.
 FoFJK:  IHMeth= 1 ICntrl=       0 DoSepK=F KAlg= 0 I1Cent=           0 FoldK=F
 IRaf= 850000000 NMat=     141 IRICut=     352 DoRegI=T DoRafI=T ISym2E= 0 IDoP0=3 IntGTp=3.
 FoFCou: FMM=F IPFlag=           0 FMFlag=      100000 FMFlg1=           0
         NFxFlg=           0 DoJE=F BraDBF=F KetDBF=F FulRan=T
         wScrn=  0.000000 ICntrl=         0 IOpCl=  1 I1Cent=           0 NGrid=           0
         NMat0=  141 NMatS0=    141 NMatT0=    0 NMatD0=  141 NMtDS0=    0 NMtDT0=    0
 Symmetry not used in FoFCou.
 Raff kept on since  81.32% of shell-pairs survive, threshold=   0.20 IRatSp=81.
          There are   144 degrees of freedom in the 1st order CPHF.  IDoFFX=6 NUNeed=     3.
    141 vectors produced by pass  0 Test12= 9.57D-14 1.00D-09 XBig12= 1.19D+03 1.13D+01.
 AX will form   141 AO Fock derivatives at one time.
    141 vectors produced by pass  1 Test12= 9.57D-14 1.00D-09 XBig12= 4.93D+02 3.02D+00.
    141 vectors produced by pass  2 Test12= 9.57D-14 1.00D-09 XBig12= 1.11D+01 1.94D-01.
    141 vectors produced by pass  3 Test12= 9.57D-14 1.00D-09 XBig12= 7.32D-02 1.60D-02.
    141 vectors produced by pass  4 Test12= 9.57D-14 1.00D-09 XBig12= 1.93D-04 9.85D-04.
    134 vectors produced by pass  5 Test12= 9.57D-14 1.00D-09 XBig12= 2.26D-07 3.07D-05.
     37 vectors produced by pass  6 Test12= 9.57D-14 1.00D-09 XBig12= 1.93D-10 7.18D-07.
      3 vectors produced by pass  7 Test12= 9.57D-14 1.00D-09 XBig12= 1.50D-13 1.86D-08.
 InvSVY:  IOpt=1 It=  1 EMax= 4.62D-14
 Solved reduced A of dimension   879 with   144 vectors.
 FullF1:  Do perturbations      1 to       3.
 Isotropic polarizability for W=    0.000000      327.87 Bohr**3.
 End of Minotr F.D. properties file   721 does not exist.
 End of Minotr F.D. properties file   722 does not exist.
 End of Minotr F.D. properties file   788 does not exist.
 Leave Link 1002 at Sat Dec 24 03:12:45 2022, MaxMem=  1342177280 cpu:           18533.5 elap:            2648.9
 (Enter /aplic/Gaussian/g16b01_iqtc08/g16/l601.exe)
 Copying SCF densities to generalized density rwf, IOpCl= 1 IROHF=0.

 **********************************************************************

            Population analysis using the SCF Density.

 **********************************************************************

 Alpha  occ. eigenvalues -- -255.68985 -88.55841 -88.55019 -29.88158 -25.77917
 Alpha  occ. eigenvalues --  -25.77882 -25.77483 -14.31369 -14.29528 -14.28904
 Alpha  occ. eigenvalues --  -14.28734 -14.18950 -14.18692 -10.19077 -10.19068
 Alpha  occ. eigenvalues --  -10.18493 -10.18389 -10.17778 -10.17656 -10.17191
 Alpha  occ. eigenvalues --  -10.17017 -10.16768 -10.16110 -10.15750 -10.15635
 Alpha  occ. eigenvalues --  -10.15455 -10.15084 -10.14969 -10.14932 -10.14596
 Alpha  occ. eigenvalues --  -10.14338 -10.12806 -10.12538  -7.80062  -7.79253
 Alpha  occ. eigenvalues --   -5.78924  -5.78126  -5.78118  -5.78059  -5.77298
 Alpha  occ. eigenvalues --   -5.77267  -3.35279  -2.14002  -2.13875  -2.13327
 Alpha  occ. eigenvalues --   -0.97687  -0.95508  -0.95169  -0.93527  -0.83582
 Alpha  occ. eigenvalues --   -0.83155  -0.81018  -0.80390  -0.80226  -0.79765
 Alpha  occ. eigenvalues --   -0.79630  -0.77016  -0.72016  -0.71389  -0.67791
 Alpha  occ. eigenvalues --   -0.67174  -0.66201  -0.64875  -0.64291  -0.64110
 Alpha  occ. eigenvalues --   -0.62398  -0.61566  -0.59886  -0.55196  -0.53933
 Alpha  occ. eigenvalues --   -0.52756  -0.52640  -0.52246  -0.50291  -0.49523
 Alpha  occ. eigenvalues --   -0.49210  -0.48263  -0.46956  -0.46719  -0.45621
 Alpha  occ. eigenvalues --   -0.45011  -0.44573  -0.44010  -0.43913  -0.43685
 Alpha  occ. eigenvalues --   -0.43171  -0.43078  -0.42556  -0.41566  -0.40668
 Alpha  occ. eigenvalues --   -0.40155  -0.39667  -0.38869  -0.38529  -0.38304
 Alpha  occ. eigenvalues --   -0.37499  -0.35968  -0.34957  -0.34308  -0.33536
 Alpha  occ. eigenvalues --   -0.33263  -0.32961  -0.32673  -0.32143  -0.31494
 Alpha  occ. eigenvalues --   -0.30885  -0.30463  -0.30340  -0.30188  -0.28814
 Alpha  occ. eigenvalues --   -0.27976  -0.27534  -0.21349  -0.20672  -0.20077
 Alpha  occ. eigenvalues --   -0.18069  -0.16958  -0.16538  -0.16108
 Alpha virt. eigenvalues --   -0.07828  -0.06782  -0.06287  -0.05906  -0.05161
 Alpha virt. eigenvalues --   -0.04321  -0.00855  -0.00529   0.01965   0.03677
 Alpha virt. eigenvalues --    0.03900   0.04719   0.05129   0.06298   0.06820
 Alpha virt. eigenvalues --    0.06988   0.07175   0.07564   0.07655   0.07891
 Alpha virt. eigenvalues --    0.08216   0.08769   0.09311   0.09682   0.09868
 Alpha virt. eigenvalues --    0.10109   0.10239   0.11543   0.11984   0.13060
 Alpha virt. eigenvalues --    0.13262   0.13851   0.14991   0.15166   0.15596
 Alpha virt. eigenvalues --    0.16078   0.16389   0.17708   0.18313   0.18472
 Alpha virt. eigenvalues --    0.19475   0.21682   0.22860   0.23548   0.23743
 Alpha virt. eigenvalues --    0.25116   0.25263   0.25870   0.26269   0.26702
 Alpha virt. eigenvalues --    0.26851   0.27686   0.28270   0.28570   0.28871
 Alpha virt. eigenvalues --    0.31121   0.32050   0.32943   0.33957   0.34429
 Alpha virt. eigenvalues --    0.35548   0.36654   0.37343   0.37754   0.38821
 Alpha virt. eigenvalues --    0.38887   0.39083   0.40381   0.40947   0.41088
 Alpha virt. eigenvalues --    0.41368   0.41640   0.42264   0.42494   0.43080
 Alpha virt. eigenvalues --    0.43284   0.43733   0.44039   0.45143   0.45358
 Alpha virt. eigenvalues --    0.45462   0.45829   0.46303   0.47190   0.47656
 Alpha virt. eigenvalues --    0.47937   0.48674   0.49133   0.50325   0.51230
 Alpha virt. eigenvalues --    0.51898   0.52399   0.52750   0.53175   0.53446
 Alpha virt. eigenvalues --    0.53894   0.54751   0.55622   0.56003   0.56709
 Alpha virt. eigenvalues --    0.57237   0.57491   0.57915   0.58434   0.58884
 Alpha virt. eigenvalues --    0.59636   0.59887   0.60115   0.60322   0.61077
 Alpha virt. eigenvalues --    0.61326   0.61727   0.61825   0.62310   0.62599
 Alpha virt. eigenvalues --    0.63638   0.63844   0.64534   0.64759   0.65025
 Alpha virt. eigenvalues --    0.65506   0.65667   0.66385   0.66401   0.67114
 Alpha virt. eigenvalues --    0.67253   0.67524   0.67793   0.68178   0.69047
 Alpha virt. eigenvalues --    0.69655   0.70175   0.70748   0.70941   0.71357
 Alpha virt. eigenvalues --    0.71483   0.71717   0.71967   0.72037   0.73020
 Alpha virt. eigenvalues --    0.73451   0.73899   0.74262   0.74677   0.75155
 Alpha virt. eigenvalues --    0.75343   0.76923   0.78090   0.78431   0.79580
 Alpha virt. eigenvalues --    0.80038   0.80228   0.80973   0.81468   0.83526
 Alpha virt. eigenvalues --    0.84811   0.86120   0.86457   0.87525   0.88295
 Alpha virt. eigenvalues --    0.88674   0.89823   0.91264   0.92076   0.92413
 Alpha virt. eigenvalues --    0.93400   0.94175   0.95067   0.96312   0.97115
 Alpha virt. eigenvalues --    0.98365   0.99758   1.01096   1.02328   1.02752
 Alpha virt. eigenvalues --    1.03868   1.05168   1.06791   1.08968   1.10152
 Alpha virt. eigenvalues --    1.10883   1.11736   1.12588   1.13678   1.14305
 Alpha virt. eigenvalues --    1.15136   1.16136   1.16288   1.16932   1.18960
 Alpha virt. eigenvalues --    1.19317   1.19774   1.21051   1.21390   1.21989
 Alpha virt. eigenvalues --    1.22085   1.22319   1.22924   1.23354   1.23694
 Alpha virt. eigenvalues --    1.24744   1.25782   1.26974   1.28166   1.28848
 Alpha virt. eigenvalues --    1.29783   1.30557   1.30969   1.32045   1.33347
 Alpha virt. eigenvalues --    1.33756   1.34390   1.36539   1.37200   1.38581
 Alpha virt. eigenvalues --    1.39100   1.40009   1.41128   1.43988   1.45697
 Alpha virt. eigenvalues --    1.46635   1.47553   1.49369   1.50956   1.52681
 Alpha virt. eigenvalues --    1.54732   1.56374   1.58062   1.58454   1.60801
 Alpha virt. eigenvalues --    1.61197   1.62388   1.63190   1.63650   1.64750
 Alpha virt. eigenvalues --    1.65449   1.65759   1.66481   1.66541   1.66886
 Alpha virt. eigenvalues --    1.67226   1.67606   1.67908   1.68616   1.69016
 Alpha virt. eigenvalues --    1.69460   1.70299   1.70612   1.71114   1.71619
 Alpha virt. eigenvalues --    1.72096   1.72477   1.73746   1.74376   1.74461
 Alpha virt. eigenvalues --    1.74895   1.75303   1.75840   1.76338   1.76582
 Alpha virt. eigenvalues --    1.77547   1.78427   1.79127   1.79386   1.80924
 Alpha virt. eigenvalues --    1.81297   1.82260   1.83558   1.84549   1.86330
 Alpha virt. eigenvalues --    1.87146   1.87891   1.89326   1.89618   1.89855
 Alpha virt. eigenvalues --    1.90048   1.90324   1.90443   1.91442   1.92209
 Alpha virt. eigenvalues --    1.93692   1.94044   1.94200   1.94855   1.95502
 Alpha virt. eigenvalues --    1.96516   1.96818   1.97711   1.98837   1.99188
 Alpha virt. eigenvalues --    2.00139   2.01300   2.02270   2.03910   2.04008
 Alpha virt. eigenvalues --    2.04554   2.06138   2.06652   2.08895   2.09537
 Alpha virt. eigenvalues --    2.10640   2.11063   2.11972   2.14257   2.15618
 Alpha virt. eigenvalues --    2.16507   2.17547   2.18241   2.18919   2.21312
 Alpha virt. eigenvalues --    2.24599   2.26053   2.26422   2.26505   2.27875
 Alpha virt. eigenvalues --    2.28601   2.30092   2.30436   2.30918   2.32198
 Alpha virt. eigenvalues --    2.32720   2.33922   2.34489   2.35099   2.35929
 Alpha virt. eigenvalues --    2.36285   2.37010   2.37883   2.39260   2.39827
 Alpha virt. eigenvalues --    2.40617   2.41067   2.42379   2.42845   2.44021
 Alpha virt. eigenvalues --    2.44916   2.49855   2.53123   2.53516   2.54675
 Alpha virt. eigenvalues --    2.55693   2.57185   2.58291   2.59007   2.61597
 Alpha virt. eigenvalues --    2.62691   2.64772   2.66350   2.66831   2.67172
 Alpha virt. eigenvalues --    2.67302   2.68366   2.69198   2.70796   2.72035
 Alpha virt. eigenvalues --    2.72689   2.73233   2.73827   2.74700   2.75904
 Alpha virt. eigenvalues --    2.76919   2.78282   2.80979   2.82265   2.84037
 Alpha virt. eigenvalues --    2.84625   2.86145   2.87973   2.88267   2.91068
 Alpha virt. eigenvalues --    2.91396   2.93472   2.94778   2.97657   2.98140
 Alpha virt. eigenvalues --    2.98692   2.99385   3.00666   3.01966   3.03655
 Alpha virt. eigenvalues --    3.05034   3.05859   3.06784   3.07605   3.07833
 Alpha virt. eigenvalues --    3.08480   3.13928   3.27691   3.29095   3.30099
 Alpha virt. eigenvalues --    3.38997   3.44622   3.57935   3.58250   3.59314
 Alpha virt. eigenvalues --    4.12511   4.14367   4.14620   4.17813   4.27301
 Alpha virt. eigenvalues --    4.29046   4.29550
  Beta  occ. eigenvalues -- -255.68985 -88.55841 -88.55019 -29.88158 -25.77917
  Beta  occ. eigenvalues --  -25.77882 -25.77483 -14.31369 -14.29528 -14.28904
  Beta  occ. eigenvalues --  -14.28734 -14.18950 -14.18692 -10.19077 -10.19068
  Beta  occ. eigenvalues --  -10.18493 -10.18389 -10.17778 -10.17656 -10.17191
  Beta  occ. eigenvalues --  -10.17017 -10.16768 -10.16110 -10.15750 -10.15635
  Beta  occ. eigenvalues --  -10.15455 -10.15084 -10.14969 -10.14932 -10.14596
  Beta  occ. eigenvalues --  -10.14338 -10.12806 -10.12538  -7.80062  -7.79253
  Beta  occ. eigenvalues --   -5.78924  -5.78126  -5.78118  -5.78059  -5.77298
  Beta  occ. eigenvalues --   -5.77267  -3.35279  -2.14002  -2.13875  -2.13327
  Beta  occ. eigenvalues --   -0.97687  -0.95508  -0.95169  -0.93527  -0.83582
  Beta  occ. eigenvalues --   -0.83155  -0.81018  -0.80390  -0.80226  -0.79765
  Beta  occ. eigenvalues --   -0.79630  -0.77016  -0.72016  -0.71389  -0.67791
  Beta  occ. eigenvalues --   -0.67174  -0.66201  -0.64875  -0.64291  -0.64110
  Beta  occ. eigenvalues --   -0.62398  -0.61566  -0.59886  -0.55196  -0.53933
  Beta  occ. eigenvalues --   -0.52756  -0.52640  -0.52246  -0.50291  -0.49523
  Beta  occ. eigenvalues --   -0.49210  -0.48263  -0.46956  -0.46719  -0.45621
  Beta  occ. eigenvalues --   -0.45011  -0.44573  -0.44010  -0.43913  -0.43685
  Beta  occ. eigenvalues --   -0.43171  -0.43078  -0.42556  -0.41566  -0.40668
  Beta  occ. eigenvalues --   -0.40155  -0.39667  -0.38869  -0.38529  -0.38304
  Beta  occ. eigenvalues --   -0.37499  -0.35968  -0.34957  -0.34308  -0.33536
  Beta  occ. eigenvalues --   -0.33263  -0.32961  -0.32673  -0.32143  -0.31494
  Beta  occ. eigenvalues --   -0.30885  -0.30463  -0.30340  -0.30188  -0.28814
  Beta  occ. eigenvalues --   -0.27976  -0.27534  -0.21349  -0.20672  -0.20077
  Beta  occ. eigenvalues --   -0.18069  -0.16958  -0.16538  -0.16108
  Beta virt. eigenvalues --   -0.07828  -0.06782  -0.06287  -0.05906  -0.05161
  Beta virt. eigenvalues --   -0.04321  -0.00855  -0.00529   0.01965   0.03677
  Beta virt. eigenvalues --    0.03900   0.04719   0.05129   0.06298   0.06820
  Beta virt. eigenvalues --    0.06988   0.07175   0.07564   0.07655   0.07891
  Beta virt. eigenvalues --    0.08216   0.08769   0.09311   0.09682   0.09868
  Beta virt. eigenvalues --    0.10109   0.10239   0.11543   0.11984   0.13060
  Beta virt. eigenvalues --    0.13262   0.13851   0.14991   0.15166   0.15596
  Beta virt. eigenvalues --    0.16078   0.16389   0.17708   0.18313   0.18472
  Beta virt. eigenvalues --    0.19475   0.21682   0.22860   0.23548   0.23743
  Beta virt. eigenvalues --    0.25116   0.25263   0.25870   0.26269   0.26702
  Beta virt. eigenvalues --    0.26851   0.27686   0.28270   0.28570   0.28871
  Beta virt. eigenvalues --    0.31121   0.32050   0.32943   0.33957   0.34429
  Beta virt. eigenvalues --    0.35548   0.36654   0.37343   0.37754   0.38821
  Beta virt. eigenvalues --    0.38887   0.39083   0.40381   0.40947   0.41088
  Beta virt. eigenvalues --    0.41368   0.41640   0.42264   0.42494   0.43080
  Beta virt. eigenvalues --    0.43284   0.43733   0.44039   0.45143   0.45358
  Beta virt. eigenvalues --    0.45462   0.45829   0.46303   0.47190   0.47656
  Beta virt. eigenvalues --    0.47937   0.48674   0.49133   0.50325   0.51230
  Beta virt. eigenvalues --    0.51898   0.52399   0.52750   0.53175   0.53446
  Beta virt. eigenvalues --    0.53894   0.54751   0.55622   0.56003   0.56709
  Beta virt. eigenvalues --    0.57237   0.57491   0.57915   0.58434   0.58884
  Beta virt. eigenvalues --    0.59636   0.59887   0.60115   0.60322   0.61077
  Beta virt. eigenvalues --    0.61326   0.61727   0.61825   0.62310   0.62599
  Beta virt. eigenvalues --    0.63638   0.63844   0.64534   0.64759   0.65025
  Beta virt. eigenvalues --    0.65506   0.65667   0.66385   0.66401   0.67114
  Beta virt. eigenvalues --    0.67253   0.67524   0.67793   0.68178   0.69047
  Beta virt. eigenvalues --    0.69655   0.70175   0.70748   0.70941   0.71357
  Beta virt. eigenvalues --    0.71483   0.71717   0.71967   0.72037   0.73020
  Beta virt. eigenvalues --    0.73451   0.73899   0.74262   0.74677   0.75155
  Beta virt. eigenvalues --    0.75343   0.76923   0.78090   0.78431   0.79580
  Beta virt. eigenvalues --    0.80038   0.80228   0.80973   0.81468   0.83526
  Beta virt. eigenvalues --    0.84811   0.86120   0.86457   0.87525   0.88295
  Beta virt. eigenvalues --    0.88674   0.89823   0.91264   0.92076   0.92413
  Beta virt. eigenvalues --    0.93400   0.94175   0.95067   0.96312   0.97115
  Beta virt. eigenvalues --    0.98365   0.99758   1.01096   1.02328   1.02752
  Beta virt. eigenvalues --    1.03868   1.05168   1.06791   1.08968   1.10152
  Beta virt. eigenvalues --    1.10883   1.11736   1.12588   1.13678   1.14305
  Beta virt. eigenvalues --    1.15136   1.16136   1.16288   1.16932   1.18960
  Beta virt. eigenvalues --    1.19317   1.19774   1.21051   1.21390   1.21989
  Beta virt. eigenvalues --    1.22085   1.22319   1.22924   1.23354   1.23694
  Beta virt. eigenvalues --    1.24744   1.25782   1.26974   1.28166   1.28848
  Beta virt. eigenvalues --    1.29783   1.30557   1.30969   1.32045   1.33347
  Beta virt. eigenvalues --    1.33756   1.34390   1.36539   1.37200   1.38581
  Beta virt. eigenvalues --    1.39100   1.40009   1.41128   1.43988   1.45697
  Beta virt. eigenvalues --    1.46635   1.47553   1.49369   1.50956   1.52681
  Beta virt. eigenvalues --    1.54732   1.56374   1.58062   1.58454   1.60801
  Beta virt. eigenvalues --    1.61197   1.62388   1.63190   1.63650   1.64750
  Beta virt. eigenvalues --    1.65449   1.65759   1.66481   1.66541   1.66886
  Beta virt. eigenvalues --    1.67226   1.67606   1.67908   1.68616   1.69016
  Beta virt. eigenvalues --    1.69460   1.70299   1.70612   1.71114   1.71619
  Beta virt. eigenvalues --    1.72096   1.72477   1.73746   1.74376   1.74461
  Beta virt. eigenvalues --    1.74895   1.75303   1.75840   1.76338   1.76582
  Beta virt. eigenvalues --    1.77547   1.78427   1.79127   1.79386   1.80924
  Beta virt. eigenvalues --    1.81297   1.82260   1.83558   1.84549   1.86330
  Beta virt. eigenvalues --    1.87146   1.87891   1.89326   1.89618   1.89855
  Beta virt. eigenvalues --    1.90048   1.90324   1.90443   1.91442   1.92209
  Beta virt. eigenvalues --    1.93692   1.94044   1.94200   1.94855   1.95502
  Beta virt. eigenvalues --    1.96516   1.96818   1.97711   1.98837   1.99188
  Beta virt. eigenvalues --    2.00139   2.01300   2.02270   2.03910   2.04008
  Beta virt. eigenvalues --    2.04554   2.06138   2.06652   2.08895   2.09537
  Beta virt. eigenvalues --    2.10640   2.11063   2.11972   2.14257   2.15618
  Beta virt. eigenvalues --    2.16507   2.17547   2.18241   2.18919   2.21312
  Beta virt. eigenvalues --    2.24599   2.26053   2.26422   2.26505   2.27875
  Beta virt. eigenvalues --    2.28601   2.30092   2.30436   2.30918   2.32198
  Beta virt. eigenvalues --    2.32720   2.33922   2.34489   2.35099   2.35929
  Beta virt. eigenvalues --    2.36285   2.37010   2.37883   2.39260   2.39827
  Beta virt. eigenvalues --    2.40617   2.41067   2.42379   2.42845   2.44021
  Beta virt. eigenvalues --    2.44916   2.49855   2.53123   2.53516   2.54675
  Beta virt. eigenvalues --    2.55693   2.57185   2.58291   2.59007   2.61597
  Beta virt. eigenvalues --    2.62691   2.64772   2.66350   2.66831   2.67172
  Beta virt. eigenvalues --    2.67302   2.68366   2.69198   2.70796   2.72035
  Beta virt. eigenvalues --    2.72689   2.73233   2.73827   2.74700   2.75904
  Beta virt. eigenvalues --    2.76919   2.78282   2.80979   2.82265   2.84037
  Beta virt. eigenvalues --    2.84625   2.86145   2.87973   2.88267   2.91068
  Beta virt. eigenvalues --    2.91396   2.93472   2.94778   2.97657   2.98140
[...]
 95,0.00001602,-0.00000564,0.00000821,-0.00000125,0.00000548,-0.0000303
 5,-0.00016701,0.00031279,0.00013654,0.00013267,0.00003807,0.00001803,-
 0.00002104,-0.00001270,-0.00002021,-0.00002483,-0.00007845,0.00086046,
 -0.00042468,0.00073834,-0.00050643,0.00031873,-0.00003088,0.70871544,0
 .00103036,-0.00010991,0.00434299,0.00007737,-0.00002052,0.00003830,-0.
 00023768,-0.00000921,0.00002204,0.00350929,0.04170490,-0.02280844,-0.0
 0064620,0.00027936,0.00036544,0.00026560,-0.00011868,-0.00041759,0.000
 20336,-0.00017837,-0.00032815,-0.00129558,-0.00042258,0.00059913,0.000
 35382,-0.00019992,-0.00050752,-0.00026892,-0.00006010,0.00013308,0.000
 03338,-0.00008619,-0.00008309,0.00003182,-0.00011536,-0.00010899,0.000
 01858,-0.00001108,-0.00001440,-0.00012917,0.00013864,-0.00019162,-0.00
 000933,0.00001167,-0.00000748,0.00017545,0.00019626,0.00020725,-0.0000
 0786,0.00002121,0.00001821,0.00025806,-0.00047787,-0.00011810,0.000062
 68,0.00011008,0.00013223,-0.00000659,-0.00003191,-0.00008810,-0.000010
 81,0.00003315,-0.00002156,-0.03622370,-0.12363229,0.04377841,-0.019681
 56,0.00260334,0.00166774,0.04597203,-0.02220178,0.02736946,0.00171182,
 0.00283381,0.00369916,-0.02508576,-0.02753895,0.01248135,0.00039130,-0
 .00037793,0.00177555,0.00022786,0.00030884,-0.00004251,0.00074919,0.00
 005501,-0.00040187,0.00004709,0.00000463,0.00014387,0.00008526,0.00007
 119,0.00006183,-0.00011224,0.00005250,-0.00010083,0.00001013,0.0000113
 9,0.00000851,0.00005069,-0.00010238,0.00004109,0.00000728,0.00000706,-
 0.00000793,-0.00003850,0.00014079,0.00006373,-0.00000775,-0.00000292,-
 0.00001150,-0.00008618,-0.00026888,0.00000456,0.00000327,-0.00007142,-
 0.00011584,-0.00000028,0.00003626,-0.00002562,0.00001231,0.00002416,-0
 .00000707,-0.00044557,0.00046636,-0.00040318,-0.00012970,0.00002874,-0
 .00007975,-0.00890960,0.48899838,0.00065590,0.00397814,0.00020400,-0.0
 0010323,0.00012268,0.00000335,0.00019039,0.,0.00006028,-0.01018058,-0.
 01943443,0.03003815,-0.00041020,-0.00000464,0.00006781,0.00074400,0.00
 024334,0.00038209,-0.00017722,0.00019437,0.00030958,0.00119517,0.00056
 970,-0.00080708,-0.00065494,-0.00032131,0.00000705,0.00002080,0.000077
 50,-0.00019969,-0.00009856,0.00000712,0.00010015,0.00014376,0.00010828
 ,0.00007399,-0.00002013,0.00001339,0.00003516,0.00003367,-0.00003120,0
 .00009943,-0.00000759,-0.00000847,0.00001461,-0.00001341,-0.00009204,-
 0.00007269,0.00000418,-0.00001249,-0.00000836,-0.00023972,0.00005254,0
 .00008392,-0.00003387,-0.00011707,-0.00012011,-0.00001217,0.00002801,0
 .00007463,0.00001874,-0.00001056,0.00002180,0.00803496,0.03835562,-0.1
 0067025,0.01568621,0.00409296,0.00591463,-0.03300107,0.02513656,-0.014
 72641,-0.00243561,0.00367679,0.00399515,0.01775794,0.01402271,-0.01621
 455,-0.00003168,-0.00056999,-0.00195836,-0.00003096,-0.00025183,0.0000
 7806,-0.00072496,0.00002415,0.00011831,-0.00006102,-0.00020796,-0.0001
 8019,-0.00002515,-0.00005351,-0.00007569,0.00004239,-0.00003523,0.0001
 4882,0.00000121,-0.00000581,-0.00000569,-0.00005303,0.00004802,-0.0000
 9077,0.00000288,-0.00000310,0.00000548,0.00001290,-0.00010346,0.000029
 17,0.00000538,0.00000594,0.00001249,0.00000940,0.00028955,-0.00017739,
 -0.00000353,0.00003865,0.00008509,0.00000558,-0.00002737,0.00001821,0.
 00000207,-0.00002457,0.00002563,0.00051338,-0.00049498,0.00035133,0.00
 015418,-0.00020076,-0.00002025,0.05671328,-0.28615766,0.36770608,0.000
 49771,0.00034034,-0.00051884,-0.00004381,0.00003918,-0.00001369,0.0003
 5920,-0.00003409,0.00006456,-0.00568401,-0.00197382,0.00078381,-0.0000
 1766,-0.00007017,-0.00004347,0.00000137,0.00002565,0.00006147,0.000008
 76,0.00001548,-0.00001102,0.00026675,-0.00017541,0.00026870,-0.0001809
 5,-0.00002604,0.00008595,0.00001156,0.00006377,-0.00001667,-0.00002122
 ,0.00000175,-0.00000457,0.00001164,-0.00004508,-0.00001131,-0.00000499
 ,0.00000889,0.00001344,-0.00000399,0.00004075,-0.00000489,-0.00000141,
 -0.00000077,0.00000078,0.00001532,-0.00000016,0.00002301,0.00000039,0.
 00000077,0.00000171,0.00000081,-0.00002657,-0.00000939,0.00001129,-0.0
 0002412,-0.00001853,-0.00000283,-0.00000170,0.00000313,0.00000102,0.00
 000953,0.00000329,-0.01382650,0.01648129,-0.01481434,0.00062765,0.0002
 6893,0.00016944,0.00080381,-0.00188619,0.00090485,0.00034855,-0.000348
 95,0.00028779,-0.00024650,-0.00125324,0.00092945,0.00002936,0.00015074
 ,0.00009935,-0.00003066,0.00004612,-0.00003735,0.00004153,-0.00001550,
 0.00000998,-0.00001310,0.00001987,-0.00003316,-0.00000930,-0.00000139,
 -0.00001014,0.00001256,-0.00000329,0.00001863,-0.00000426,-0.00000404,
 -0.00000397,-0.00000681,0.00000033,-0.00001852,-0.00000045,-0.00000071
 ,0.00000072,0.00000641,-0.00000655,0.00000057,-0.00000086,-0.00000040,
 -0.00000073,-0.00000177,-0.00000363,0.00000561,0.00001312,0.00000357,0
 .00001479,-0.00000321,0.00000013,-0.00000886,-0.00000127,-0.00000216,0
 .00000128,-0.00032804,0.00023776,-0.00038593,0.00003247,-0.00005029,0.
 00002217,-0.20227281,0.10326000,-0.09789900,0.20939731,0.00012020,0.00
 001887,-0.00028260,0.00000150,-0.00000073,-0.00000850,0.00013088,-0.00
 007109,0.00000223,-0.00320331,0.00372276,0.00339964,0.00001336,-0.0000
 0333,0.00002357,-0.00001205,0.00001486,0.00000536,0.00004570,-0.000000
 31,0.00003878,0.00007650,0.00000339,0.00008820,-0.00004216,-0.00000940
 ,0.00003941,-0.00000822,0.00000396,-0.00001279,0.00000643,0.00002238,0
 .00000461,-0.00001237,0.00001722,0.00001249,0.00001084,0.00000027,-0.0
 0001303,0.00000162,-0.00002483,0.00001565,0.00000470,-0.00000374,-0.00
 000195,-0.00000774,-0.00001739,-0.00002287,0.00000047,0.00000161,-0.00
 000011,0.00001065,0.00001643,0.00002517,-0.00000800,0.00000398,0.00000
 985,0.00000110,-0.00000041,-0.00000617,-0.00000201,0.00000066,-0.00000
 407,-0.00670308,0.00714671,-0.00491009,0.00023784,-0.00122996,-0.00195
 351,-0.00238277,-0.00006639,0.00550099,0.00085794,-0.00029025,0.000483
 46,-0.00069976,-0.00060991,0.00005849,0.00009178,-0.00039227,-0.000684
 37,-0.00003988,-0.00003424,0.00005110,-0.00011759,0.00005040,-0.000078
 90,-0.00000214,0.00001024,-0.00001134,-0.00000442,0.00000293,-0.000001
 79,0.00000505,-0.00000042,0.00000510,-0.00000352,-0.00000193,-0.000001
 97,-0.00000101,-0.00000297,-0.00000573,-0.00000034,-0.00000005,0.00000
 043,0.00000094,0.00000410,0.00000370,-0.00000028,-0.00000073,-0.000000
 10,-0.00000776,-0.00000916,0.00000351,0.00001866,0.00000456,-0.0000102
 3,-0.00000213,-0.00000360,0.00000107,-0.00000049,0.00000210,0.00000492
 ,-0.00004178,0.00010672,-0.00012025,-0.00000907,0.00000722,0.00001372,
 0.10394011,-0.12427199,0.07908066,-0.11006876,0.12325339,-0.00026435,-
 0.00011906,-0.00004808,-0.00001185,0.00000365,-0.00000731,-0.00017526,
 -0.00002115,-0.00006657,0.00159610,0.00360797,0.00523325,0.00001602,0.
 00001083,0.00002287,0.00000903,0.00002577,0.00001348,-0.00002040,-0.00
 002993,0.00002922,-0.00004031,0.00014494,-0.00010433,-0.00000273,0.000
 01960,0.00000251,0.00000842,-0.00002472,-0.00002714,0.00000545,0.00000
 256,0.00000981,-0.00000414,0.00003376,0.00001224,0.00000692,-0.0000047
 3,-0.00000965,0.00000557,-0.00002870,0.00001937,0.00000243,-0.00000076
 ,-0.00000013,-0.00001245,-0.00001696,-0.00002760,0.00000151,0.00000012
 ,-0.00000256,-0.00000652,0.00002841,0.00002428,-0.00000814,-0.00000495
 ,-0.00001377,0.00000126,0.00000175,0.00000034,0.00000238,-0.00000100,-
 0.00000235,0.00436099,-0.00287922,0.00445642,0.00007854,-0.00210134,-0
 .00192992,0.00108429,0.00554233,0.00281087,-0.00061868,0.00033803,-0.0
 0009273,0.00070030,0.00008079,-0.00054057,0.00003651,-0.00058482,-0.00
 067567,0.00003065,-0.00011839,0.00010272,-0.00010886,0.00004420,-0.000
 09365,0.00000596,-0.00000310,-0.00001020,-0.00000386,0.00000663,0.0000
 1428,0.00000452,0.00000266,0.00000354,-0.00000508,-0.00000423,-0.00000
 044,-0.00000226,-0.00000344,-0.00000987,-0.00000198,-0.00000044,-0.000
 00099,-0.00000007,0.00000153,0.00000326,-0.00000020,0.00000046,0.00000
 050,-0.00001237,0.00000302,-0.00000080,0.00001604,0.00001480,0.0000133
 2,-0.00000048,-0.00000395,0.00000090,-0.00000524,-0.00000291,0.0000000
 8,0.00014323,-0.00012670,0.00021908,0.00003257,-0.00001438,0.00001772,
 -0.09866858,0.07928635,-0.10991290,0.10510475,-0.08802567,0.10620862,-
 0.00520290,-0.00096500,0.00185088,-0.00046783,0.00042551,-0.00013741,0
 .00040146,-0.00023527,0.00033266,0.00335979,0.01907236,-0.01555603,0.0
 0013150,-0.00077356,-0.00073649,0.00080574,0.00045182,0.00068674,-0.00
 081102,0.00027113,-0.00121045,0.00005190,-0.00024943,0.00055831,-0.000
 83608,0.00030352,-0.00012200,-0.00001845,0.00027185,0.00026755,-0.0000
 2770,-0.00007285,0.00000065,0.00000320,-0.00018313,0.00001948,0.000007
 57,0.00002376,0.00003057,0.00001872,0.00024924,0.00007085,-0.00000823,
 0.00000342,0.00000234,0.00004634,0.00007867,-0.00002098,-0.00002665,0.
 00004714,0.00002849,0.00014355,0.00006109,0.00002448,0.00008362,-0.000
 07618,-0.00003964,-0.00007324,-0.00005059,-0.00004540,-0.00005035,0.00
 016538,-0.00001849,0.00859655,-0.03127035,0.02577620,-0.00491090,-0.00
 079427,-0.00049497,-0.25187698,0.10160319,-0.09929026,0.00904064,-0.00
 459745,0.00432180,-0.05713808,-0.00313454,-0.00510851,-0.00215146,-0.0
 0254277,0.00449938,0.00033148,0.00045414,-0.00002313,0.00071944,-0.000
 08725,-0.00061388,-0.00003762,-0.00010215,-0.00026832,-0.00001651,-0.0
 0000433,0.00003278,-0.00001788,-0.00001845,0.00004745,-0.00002516,-0.0
 0002730,-0.00001630,-0.00002135,-0.00014249,-0.00016179,-0.00000367,-0
 .00000042,-0.00000194,0.00000338,0.00014514,0.00007552,-0.00003479,-0.
 00000559,-0.00002511,-0.00014020,-0.00021631,-0.00020686,-0.00024901,-
 0.00004555,0.00010400,-0.00004362,0.00006530,-0.00009402,-0.00005427,-
 0.00000361,0.00001000,-0.00065836,0.00038504,-0.00064115,0.00079461,-0
 .00061081,0.00011726,-0.13889587,-0.06554913,0.04511955,0.00966710,0.0
 1763540,-0.01358360,0.73955969,-0.00173615,0.00098236,-0.00110809,-0.0
 0008437,0.00004811,0.00000259,0.00034688,-0.00005660,0.00014978,0.0195
 9030,-0.04216632,0.02807938,0.00008053,-0.00000848,-0.00008749,0.00022
 845,0.00021882,0.00047743,-0.00121835,0.00066106,-0.00008836,0.0002242
 4,-0.00024339,0.00018814,-0.00019792,0.00009702,0.00004934,0.00025414,
 -0.00009220,-0.00027210,-0.00006726,-0.00004390,0.00001430,0.00006938,
 0.00023967,0.00005450,-0.00004079,0.00001473,0.00004320,0.00012079,-0.
 00012901,0.00022905,-0.00000381,-0.00000472,0.00001318,-0.00014796,-0.
 00018151,-0.00022209,0.00001119,-0.00000921,-0.00001311,-0.00028773,0.
 00033986,0.00027502,-0.00015776,-0.00023327,-0.00019835,-0.00000110,0.
 00007012,0.00011127,-0.00000226,0.00001449,0.00001792,-0.06670922,-0.0
 0127877,0.00168254,-0.00115454,0.00340322,0.00311493,0.05308636,-0.151
 85660,0.07775348,0.01870303,-0.00654377,0.00949116,0.03450259,0.042198
 34,-0.02502127,-0.00315757,0.00102452,0.00244214,-0.00002674,-0.000001
 14,-0.00016656,0.00028743,-0.00057789,0.00111604,-0.00000720,-0.000160
 15,-0.00010421,-0.00003416,-0.00001721,-0.00001176,0.00007560,-0.00001
 207,0.00012431,-0.00000452,-0.00000993,-0.00000808,-0.00006029,0.00007
 376,-0.00008341,-0.00000628,-0.00000281,0.00000405,0.00002801,-0.00011
 941,-0.00004387,0.00000131,0.00000433,0.00000548,0.00009231,0.00026759
 ,-0.00012753,-0.00019035,0.00008359,0.00025070,-0.00002269,-0.00000272
 ,-0.00000702,-0.00004452,-0.00003411,-0.00004276,-0.00036590,0.0002065
 7,-0.00046180,0.00017748,-0.00009367,0.00002585,-0.01691554,-0.2369317
 6,0.13543237,-0.00554605,-0.00658105,0.00741942,0.04809267,0.47208883,
 0.00108489,-0.00103743,0.00075257,0.00005539,-0.00002732,-0.00000271,-
 0.00026208,0.00006057,-0.00011730,-0.01466756,0.02864609,-0.03249718,-
 0.00015387,-0.00023686,-0.00005574,-0.00032081,-0.00023346,-0.00039619
 ,0.00009287,-0.00011442,-0.00031502,-0.00024509,0.00002379,-0.00018171
 ,0.00014889,-0.00009715,-0.00008070,-0.00007787,0.00007770,0.00020586,
 0.00004400,0.00002418,-0.00001592,-0.00006971,-0.00021201,-0.00003371,
 0.00002019,-0.00001087,-0.00002209,-0.00009574,0.00013728,-0.00016595,
 -0.00000155,0.00000768,-0.00000622,0.00010516,0.00015532,0.00020026,-0
 .00002168,0.00001373,0.00001422,0.00036491,-0.00023373,-0.00032404,0.0
 0008411,0.00004830,0.00013610,-0.00000419,-0.00002550,-0.00005915,-0.0
 0000914,0.00002366,-0.00001527,0.05393353,0.00515871,0.01027166,0.0000
 8880,0.00304161,0.00413916,-0.05937967,0.08122008,-0.13356399,-0.01456
 996,0.00764060,-0.00395483,-0.03468004,-0.02795911,0.02706782,0.001927
 11,0.00317211,0.00562122,0.00029631,0.00062543,-0.00059385,0.00104713,
 -0.00006042,-0.00012368,-0.00001929,0.00015937,0.00007738,0.00001852,0
 .00000615,0.00000494,-0.00005968,-0.00000108,-0.00009794,0.00000538,0.
 00001006,0.00000433,0.00006136,-0.00004499,0.00007004,0.00000629,0.000
 00219,-0.00000248,-0.00003226,0.00007943,0.00002012,-0.00000221,-0.000
 00548,-0.00000715,-0.00008501,-0.00026094,0.00012508,0.00017246,0.0000
 0240,-0.00010627,-0.00001756,0.00001590,-0.00005337,0.00001691,0.00003
 092,-0.00002812,0.00019242,-0.00017666,0.00031307,-0.00010609,0.000084
 03,-0.00000924,0.00574576,0.13073816,-0.16772639,0.00499401,0.00983278
 ,-0.00367132,0.01877045,-0.26019099,0.34709217,0.00024301,0.00007601,-
 0.00003966,-0.00001268,-0.00000183,0.00000961,-0.00000196,-0.00001352,
 0.00002106,0.00016273,0.00038393,0.00003123,-0.00001671,0.00000311,0.0
 0001285,-0.00001252,-0.00000781,-0.00001445,-0.00029423,-0.00000530,-0
 .00011377,-0.00001760,-0.00004911,0.00006286,-0.00001517,-0.00000025,0
 .00000359,0.00000067,-0.00001119,-0.00000558,0.00000154,-0.00000395,-0
 .00000550,0.00000899,-0.00000271,-0.00000125,-0.00000289,-0.00000257,0
 .00000372,0.00000082,0.00000812,-0.00000752,-0.00000326,0.00000334,0.0
 0000579,0.00001486,0.00000282,0.00002078,-0.00000566,-0.00000129,-0.00
 000288,-0.00001275,-0.00001142,-0.00004868,-0.00001399,-0.00007355,-0.
 00005755,0.00000135,0.00001830,0.00001833,0.00000589,0.00000348,0.0000
 0297,0.00170882,-0.00104113,0.00020552,-0.00011115,0.00017399,-0.00013
 303,-0.01542267,-0.00826699,0.00459070,0.00095179,0.00016670,0.0003682
 5,-0.00104321,0.00258966,-0.00310455,-0.00019154,-0.00057161,0.0005933
 7,-0.00000317,0.00001316,0.00000880,-0.00003483,0.00001341,-0.00003888
 ,0.00000097,0.00000207,0.00000486,0.00000265,0.00000308,0.00000315,0.0
 0000472,-0.00000103,0.00000176,-0.00000021,-0.00000140,0.00000104,-0.0
 0000036,0.00001033,-0.00000091,-0.00000149,-0.00000236,-0.00000174,0.0
 0000223,-0.00002372,-0.00000419,0.00000076,0.00000240,0.00000332,-0.00
 000196,0.00004723,0.00002053,-0.00004415,0.00005994,0.00010711,0.00000
 601,-0.00000579,-0.00000401,-0.00001990,-0.00002431,-0.00003270,-0.000
 03900,0.00004115,-0.00005328,0.00000519,-0.00000288,-0.00000069,-0.001
 19355,0.00033414,-0.00085030,0.00054074,0.00016900,0.00030397,-0.30996
 812,-0.07778165,0.03560425,0.32482103,0.00002030,-0.00024120,-0.000278
 63,-0.00000621,-0.00000156,-0.00001175,-0.00000108,-0.00001515,0.00001
 207,0.00047278,-0.00141421,-0.00075688,0.00005082,-0.00000146,-0.00002
 242,-0.00007667,-0.00002395,-0.00001294,0.00017447,-0.00005627,0.00004
 247,-0.00008191,-0.00010092,0.00012607,0.00000235,0.00003422,0.0000303
 9,0.00000252,-0.00002053,0.00000728,0.00000922,-0.00000366,-0.00001489
 ,-0.00001467,0.00001057,-0.00000873,0.00000119,0.00000002,-0.00000224,
 0.00000211,-0.00000782,0.00000651,0.00000285,0.00000039,-0.00000439,-0
 .00001528,-0.00000375,-0.00001521,0.00000521,-0.00000003,0.00000033,0.
 00000433,0.00001606,0.00002745,0.00002541,0.00004511,0.00004134,0.0000
 0492,-0.00001524,-0.00001368,0.00000028,-0.00000538,-0.00000177,-0.000
 37304,-0.00062135,0.00672081,-0.00090161,-0.00006571,-0.00031983,0.014
 79934,0.00860540,-0.00167783,-0.00019201,-0.00101096,-0.00237445,0.002
 45673,0.00183485,0.00517189,0.00042960,0.00032279,-0.00046342,0.000001
 02,-0.00003536,0.00000019,-0.00009056,0.00002801,0.00001283,0.00001350
 ,0.00001284,0.00002017,0.00000291,0.00001053,0.00001337,-0.00000176,0.
 00000915,-0.00001882,-0.00000289,-0.00000169,0.00000107,0.00000326,-0.
 00001241,0.00000310,-0.00000247,0.00000038,-0.00000071,0.00000302,0.00
 001515,-0.00000176,-0.00000117,0.00000018,-0.00000107,0.00001230,-0.00
 003434,0.00000190,0.00003872,0.00000054,-0.00002870,-0.00000161,0.0000
 0167,0.00000194,0.00000962,0.00001083,0.00001174,-0.00010618,0.0000856
 2,-0.00009845,0.00001199,-0.00000294,0.00001343,-0.02298091,-0.0008957
 3,0.00256938,0.00055424,-0.00078858,-0.00249903,-0.07804697,-0.0746452
 9,0.01989017,0.08378201,0.06898118,-0.00010399,-0.00027373,-0.00034951
 ,0.00000649,-0.00001925,-0.00000365,0.00000952,0.00000439,-0.00002495,
 0.00002982,-0.00086145,-0.00174015,0.00006733,-0.00000806,-0.00002919,
 -0.00009591,-0.00004370,-0.00003187,-0.00026457,-0.00006721,-0.0001145
 9,0.00004070,0.00001517,-0.00002631,0.00003590,0.00002817,0.00003430,-
 0.00000825,0.00001849,0.00001455,0.00000480,0.00001159,0.00000765,-0.0
 0001236,-0.00001398,0.00000886,0.00000743,0.00000146,-0.00000755,-0.00
 000599,-0.00000290,-0.00000723,0.00000596,-0.00000363,-0.00000254,-0.0
 0000681,-0.00000960,0.00000991,0.00000229,-0.00000134,-0.00000025,-0.0
 0000356,0.00002279,-0.00002409,0.00000840,-0.00000105,0.00000594,0.000
 00377,-0.00000131,-0.00000256,0.00000122,-0.00000084,0.00000220,-0.000
 14418,0.00658776,0.00260827,0.00069173,-0.00020975,-0.00016143,-0.0139
 7609,-0.00386048,0.00639130,0.00066709,-0.00234181,-0.00205374,-0.0024
 0344,0.00522365,0.00335358,-0.00028643,-0.00035863,0.00024267,0.000018
 58,-0.00000144,0.00003383,-0.00007504,0.00002143,-0.00003657,0.0000025
 9,0.00003390,0.00000487,-0.00000621,-0.00000347,0.00000104,0.00000428,
 -0.00000687,-0.00001638,-0.00000289,-0.00000171,0.00000061,0.00000520,
 -0.00000463,0.00000759,-0.00000204,-0.00000224,0.00000020,0.00000568,-
 0.00000271,-0.00000208,-0.00000106,0.00000089,0.00000205,0.00000619,0.
 00000329,0.00002026,-0.00004005,0.00004694,0.00006770,0.00000349,-0.00
 000099,0.00000107,-0.00001914,-0.00001337,-0.00002156,0.00003047,-0.00
 003798,0.00004725,-0.00000943,0.00001972,0.00000753,0.01763631,0.00507
 035,0.00290233,-0.00000886,-0.00254880,-0.00197013,0.03566933,0.019691
 25,-0.05188848,-0.03748831,-0.02609830,0.04273924\\-0.00000079,0.00000
 120,0.00000015,0.00000540,-0.00000064,0.00000117,-0.00003041,0.0000271
 0,-0.00003520,0.00000166,0.00000059,-0.00000183,-0.00000172,-0.0000003
 8,-0.00000085,-0.00000228,0.00000211,0.00000103,0.00000020,-0.00000063
 ,-0.00000026,0.00002905,-0.00004475,0.00005735,-0.00000745,0.00000240,
 0.00000029,-0.00000025,-0.00000205,-0.00000314,-0.00000022,-0.00000067
 ,-0.00000002,0.00000114,0.00000334,0.00000215,0.00000047,0.00000085,0.
 00000072,0.00000088,0.00000077,-0.00000045,0.00000125,0.00000333,0.000
 00200,0.00000123,0.00000298,0.00000121,0.00000044,0.00000089,-0.000000
 08,0.00000044,-0.00000349,-0.00000199,0.00000020,-0.00000055,-0.000001
 07,-0.00000019,-0.00000016,0.00000015,0.00000014,0.00000044,-0.0000008
 6,0.00000013,-0.00000092,0.,0.00000058,0.00000034,-0.00000094,-0.00000
 030,-0.00000206,-0.00000057,0.00000020,-0.00000074,-0.00000043,0.00000
 090,-0.00000086,-0.00000047,-0.00000017,-0.00000039,-0.00000008,0.0000
 0027,-0.00000003,-0.00000010,0.00000016,-0.00000007,0.00000006,-0.0000
 0037,0.00000118,0.00000233,-0.00000146,0.00000043,0.00000018,-0.000003
 52,-0.00000073,-0.00000311,-0.00000115,-0.00000088,-0.00000003,0.00000
 046,-0.00000257,0.00000256,-0.00000046,-0.00000155,-0.00000126,-0.0000
 0150,0.00000041,-0.00000137,0.00000124,-0.00000113,0.00000109,0.000001
 61,-0.00000021,0.00000353,0.00000011,0.00000035,0.00000037,0.00000031,
 0.00000017,0.00000028,0.00000039,0.00000024,-0.00000001,-0.00000065,0.
 00001938,-0.00001932,0.00000445,0.00000187,-0.00000054,-0.00000091,-0.
 00000122,-0.00000100,0.00000007,-0.00000131,-0.00000010,0.00000089,-0.
 00000108,-0.00000120,-0.00000048,-0.00000129,-0.00000036\\\@


 THE CAUTIOUS SELDOM ERR...CONFUCIUS                   
 Job cpu time:       0 days  8 hours 51 minutes  5.2 seconds.
 Elapsed time:       0 days  1 hours 15 minutes 54.9 seconds.
 File lengths (MBytes):  RWF=   2975 Int=      0 D2E=      0 Chk=     25 Scr=      1
 Normal termination of Gaussian 16 at Sat Dec 24 03:25:15 2022.
