 Entering Gaussian System, Link 0=g16
 Initial command:
 /aplic/Gaussian/g16b01_iqtc09/g16/l1.exe "/scratch/2722437.1.iqtc09.q/Gau-23458.inp" -scrdir="/scratch/2722437.1.iqtc09.q/"
 Entering Link 1 = /aplic/Gaussian/g16b01_iqtc09/g16/l1.exe PID=     23466.
  
 Copyright (c) 1988-2017, Gaussian, Inc.  All Rights Reserved.
  
 This is part of the Gaussian(R) 16 program.  It is based on
 the Gaussian(R) 09 system (copyright 2009, Gaussian, Inc.),
 the Gaussian(R) 03 system (copyright 2003, Gaussian, Inc.),
 the Gaussian(R) 98 system (copyright 1998, Gaussian, Inc.),
 the Gaussian(R) 94 system (copyright 1995, Gaussian, Inc.),
 the Gaussian 92(TM) system (copyright 1992, Gaussian, Inc.),
 the Gaussian 90(TM) system (copyright 1990, Gaussian, Inc.),
 the Gaussian 88(TM) system (copyright 1988, Gaussian, Inc.),
 the Gaussian 86(TM) system (copyright 1986, Carnegie Mellon
 University), and the Gaussian 82(TM) system (copyright 1983,
 Carnegie Mellon University). Gaussian is a federally registered
 trademark of Gaussian, Inc.
  
 This software contains proprietary and confidential information,
 including trade secrets, belonging to Gaussian, Inc.
  
 This software is provided under written license and may be
 used, copied, transmitted, or stored only in accord with that
 written license.
  
 The following legend is applicable only to US Government
 contracts under FAR:
  
                    RESTRICTED RIGHTS LEGEND
  
 Use, reproduction and disclosure by the US Government is
 subject to restrictions as set forth in subparagraphs (a)
 and (c) of the Commercial Computer Software - Restricted
 Rights clause in FAR 52.227-19.
  
 Gaussian, Inc.
 340 Quinnipiac St., Bldg. 40, Wallingford CT 06492
  
  
 ---------------------------------------------------------------
 Warning -- This program may not be used in any manner that
 competes with the business of Gaussian, Inc. or will provide
 assistance to any competitor of Gaussian, Inc.  The licensee
 of this program is prohibited from giving any competitor of
 Gaussian, Inc. access to this program.  By using this program,
 the user acknowledges that Gaussian, Inc. is engaged in the
 business of creating and licensing software in the field of
 computational chemistry and represents and warrants to the
 licensee that it is not a competitor of Gaussian, Inc. and that
 it will not use this program in any manner prohibited above.
 ---------------------------------------------------------------
  

 Cite this work as:
 Gaussian 16, Revision B.01,
 M. J. Frisch, G. W. Trucks, H. B. Schlegel, G. E. Scuseria, 
 M. A. Robb, J. R. Cheeseman, G. Scalmani, V. Barone, 
 G. A. Petersson, H. Nakatsuji, X. Li, M. Caricato, A. V. Marenich, 
 J. Bloino, B. G. Janesko, R. Gomperts, B. Mennucci, H. P. Hratchian, 
 J. V. Ortiz, A. F. Izmaylov, J. L. Sonnenberg, D. Williams-Young, 
 F. Ding, F. Lipparini, F. Egidi, J. Goings, B. Peng, A. Petrone, 
 T. Henderson, D. Ranasinghe, V. G. Zakrzewski, J. Gao, N. Rega, 
 G. Zheng, W. Liang, M. Hada, M. Ehara, K. Toyota, R. Fukuda, 
 J. Hasegawa, M. Ishida, T. Nakajima, Y. Honda, O. Kitao, H. Nakai, 
 T. Vreven, K. Throssell, J. A. Montgomery, Jr., J. E. Peralta, 
 F. Ogliaro, M. J. Bearpark, J. J. Heyd, E. N. Brothers, K. N. Kudin, 
 V. N. Staroverov, T. A. Keith, R. Kobayashi, J. Normand, 
 K. Raghavachari, A. P. Rendell, J. C. Burant, S. S. Iyengar, 
 J. Tomasi, M. Cossi, J. M. Millam, M. Klene, C. Adamo, R. Cammi, 
 J. W. Ochterski, R. L. Martin, K. Morokuma, O. Farkas, 
 J. B. Foresman, and D. J. Fox, Gaussian, Inc., Wallingford CT, 2016.
 
 ******************************************
 Gaussian 16:  ES64L-G16RevB.01 20-Dec-2017
                22-Dec-2022 
 ******************************************
 %nprocs=8
 Will use up to    8 processors via shared memory.
 %mem=12gb
 %chk=ABITEM_opt2_LS.chk
 ----------------------------------------------------------------------
 #p nosymm scf=(maxconventionalcycles=200,xqc) UB3LYP IOp(3/76=10000015
 00) IOp(3/77=0720008500) IOp(3/78=0810010000) def2SVP opt=(RecalcFC=30
 ,cartesian,skipdihedral) EmpiricalDispersion=GD3BJ
 ----------------------------------------------------------------------
 1/10=7,18=10,26=3,38=1,71=30,156=2/1,3;
 2/12=2,15=1,17=6,18=5,29=2,40=1/2;
 3/5=43,7=101,11=2,25=1,30=1,71=2,74=-5,76=1000001500,77=720008500,78=810010000,116=2,124=41,140=1/1,2,3;
 4//1;
 5/5=2,8=3,13=1,38=5,85=200/2,8;
 8/6=4,10=90,11=11/1;
 11/6=1,8=1,9=11,15=111,16=1,31=1/1,2,10;
 10/6=1,31=1/2;
 6/7=2,8=2,9=2,10=2,28=1/1;
 7/7=1,10=1,25=1,30=1/1,2,3,16;
 1/10=7,18=10,26=3,71=30,156=2/3(3);
 2/15=1,29=1/2;
 7/7=1,9=1,25=1,30=1,44=-1/16;
 99/12=1/99;
 2/15=1,29=1/2;
 3/5=43,7=101,11=2,25=1,30=1,71=2,74=-5,76=1000001500,77=720008500,78=810010000,116=2,124=41,140=1/1,2,3;
 4/5=5,16=3,69=1/1;
 5/5=2,8=3,13=1,38=5,85=200/2,8;
 8/6=4,10=90,11=11/1;
 11/6=1,8=1,9=11,15=111,16=1,31=1/1,2,10;
 10/6=1,31=1/2;
 7/7=1,10=1,25=1,30=1/1,2,3,16;
 1/18=10,26=3,71=30,156=2/3(-8);
 2/15=1,29=1/2;
 6/7=2,8=2,9=2,10=2,19=2,28=1/1;
 7/7=1,9=1,25=1,30=1,44=-1/16;
 99/9=1,12=1/99;
 Leave Link    1 at Thu Dec 22 17:47:22 2022, MaxMem=  1610612736 cpu:               0.3 elap:               0.1
 (Enter /aplic/Gaussian/g16b01_iqtc09/g16/l101.exe)
 ----------
 Title Card
 ----------
 Symbolic Z-matrix:
 Charge =  0 Multiplicity = 1
 Fe                    4.17727   7.75947   4.16698 
 S                     8.51469   6.3183    3.90105 
 S                     2.72301   10.83199   1.00548 
 N                     2.28788   7.60286   4.58469 
 N                     3.85397   6.41249   2.81108 
 N                     4.63338   8.79815   5.73286 
 N                     4.43076   6.20084   5.43122 
 N                     3.88221   9.24841   3.03407 
 N                     6.04604   7.6733    3.72995 
 C                     3.3273    6.60553   1.58138 
 H                     3.12426   7.64927   1.29819 
 C                     3.0671    5.53762   0.71579 
 H                     2.64607   5.74274  -0.2786 
 C                     3.34718   4.22961   1.13623 
 H                     3.14739   3.37073   0.47879 
 C                     3.8892    4.03519   2.4155 
 H                     4.12776   3.02717   2.78521 
 C                     4.14175   5.14715   3.22724 
 C                     4.81982   5.05214   4.57145 
 H                     5.91994   5.10568   4.41129 
 H                     4.60288   4.07887   5.06475 
 C                     1.27147   8.25933   3.96561 
 H                     1.56088   9.07643   3.28976 
 C                     0.65677   6.15229   5.63329 
 H                     0.45984   5.30208   6.30323 
 C                     1.97402   6.56842   5.41756 
 C                     3.1458    5.98302   6.15423 
 H                     2.99218   4.90628   6.3823 
 H                     3.22103   6.50587   7.13111 
 C                     4.41456   10.11985   5.90341 
 H                     3.91948   10.62324   5.05955 
 C                     4.8249    10.79286   7.05914 
 H                     4.6364    11.87188   7.15225 
 C                     5.47585   10.07558   8.07334 
 H                     5.80952   10.57726   8.9935 
 C                     5.69501   8.70014   7.89367 
 H                     6.20017   8.09946   8.66423 
 C                     5.27057   8.08914   6.70937 
 C                     5.48808   6.62923   6.39145 
 H                     5.4778    6.00795   7.31502 
 H                     6.4809    6.49134   5.91257 
 C                     3.42091   9.93489   2.16566 
 C                     7.11395   7.13569   3.75595 
 C                    -0.06812   7.90805   4.15573 
 H                    -0.84593   8.47821   3.62807 
 C                    -0.39224   6.83205   4.99522 
 H                    -1.43671   6.5236    5.14723 
 
 ITRead=  0  0  0  0  0  0  0  0  0  0  0  0  0  0  0  0  0  0  0  0
 ITRead=  0  0  0  0  0  0  0  0  0  0  0  0  0  0  0  0  0  0  0  0
 ITRead=  0  0  0  0  0  0  0
 MicOpt= -1 -1 -1 -1 -1 -1 -1 -1 -1 -1 -1 -1 -1 -1 -1 -1 -1 -1 -1 -1
 MicOpt= -1 -1 -1 -1 -1 -1 -1 -1 -1 -1 -1 -1 -1 -1 -1 -1 -1 -1 -1 -1
 MicOpt= -1 -1 -1 -1 -1 -1 -1
 NAtoms=     47 NQM=       47 NQMF=       0 NMMI=      0 NMMIF=      0
                NMic=       0 NMicF=      0.
                    Isotopes and Nuclear Properties:
 (Nuclear quadrupole moments (NQMom) in fm**2, nuclear magnetic moments (NMagM)
  in nuclear magnetons)

  Atom         1           2           3           4           5           6           7           8           9          10
 IAtWgt=          56          32          32          14          14          14          14          14          14          12
 AtmWgt=  55.9349393  31.9720718  31.9720718  14.0030740  14.0030740  14.0030740  14.0030740  14.0030740  14.0030740  12.0000000
 NucSpn=           0           0           0           2           2           2           2           2           2           0
 AtZEff=  -0.0000000  -0.0000000  -0.0000000  -0.0000000  -0.0000000  -0.0000000  -0.0000000  -0.0000000  -0.0000000  -0.0000000
 NQMom=    0.0000000   0.0000000   0.0000000   2.0440000   2.0440000   2.0440000   2.0440000   2.0440000   2.0440000   0.0000000
 NMagM=    0.0000000   0.0000000   0.0000000   0.4037610   0.4037610   0.4037610   0.4037610   0.4037610   0.4037610   0.0000000
 AtZNuc=  26.0000000  16.0000000  16.0000000   7.0000000   7.0000000   7.0000000   7.0000000   7.0000000   7.0000000   6.0000000

  Atom        11          12          13          14          15          16          17          18          19          20
 IAtWgt=           1          12           1          12           1          12           1          12          12           1
 AtmWgt=   1.0078250  12.0000000   1.0078250  12.0000000   1.0078250  12.0000000   1.0078250  12.0000000  12.0000000   1.0078250
 NucSpn=           1           0           1           0           1           0           1           0           0           1
 AtZEff=  -0.0000000  -0.0000000  -0.0000000  -0.0000000  -0.0000000  -0.0000000  -0.0000000  -0.0000000  -0.0000000  -0.0000000
 NQMom=    0.0000000   0.0000000   0.0000000   0.0000000   0.0000000   0.0000000   0.0000000   0.0000000   0.0000000   0.0000000
 NMagM=    2.7928460   0.0000000   2.7928460   0.0000000   2.7928460   0.0000000   2.7928460   0.0000000   0.0000000   2.7928460
 AtZNuc=   1.0000000   6.0000000   1.0000000   6.0000000   1.0000000   6.0000000   1.0000000   6.0000000   6.0000000   1.0000000

  Atom        21          22          23          24          25          26          27          28          29          30
 IAtWgt=           1          12           1          12           1          12          12           1           1          12
 AtmWgt=   1.0078250  12.0000000   1.0078250  12.0000000   1.0078250  12.0000000  12.0000000   1.0078250   1.0078250  12.0000000
 NucSpn=           1           0           1           0           1           0           0           1           1           0
 AtZEff=  -0.0000000  -0.0000000  -0.0000000  -0.0000000  -0.0000000  -0.0000000  -0.0000000  -0.0000000  -0.0000000  -0.0000000
 NQMom=    0.0000000   0.0000000   0.0000000   0.0000000   0.0000000   0.0000000   0.0000000   0.0000000   0.0000000   0.0000000
 NMagM=    2.7928460   0.0000000   2.7928460   0.0000000   2.7928460   0.0000000   0.0000000   2.7928460   2.7928460   0.0000000
 AtZNuc=   1.0000000   6.0000000   1.0000000   6.0000000   1.0000000   6.0000000   6.0000000   1.0000000   1.0000000   6.0000000

  Atom        31          32          33          34          35          36          37          38          39          40
 IAtWgt=           1          12           1          12           1          12           1          12          12           1
 AtmWgt=   1.0078250  12.0000000   1.0078250  12.0000000   1.0078250  12.0000000   1.0078250  12.0000000  12.0000000   1.0078250
 NucSpn=           1           0           1           0           1           0           1           0           0           1
 AtZEff=  -0.0000000  -0.0000000  -0.0000000  -0.0000000  -0.0000000  -0.0000000  -0.0000000  -0.0000000  -0.0000000  -0.0000000
 NQMom=    0.0000000   0.0000000   0.0000000   0.0000000   0.0000000   0.0000000   0.0000000   0.0000000   0.0000000   0.0000000
 NMagM=    2.7928460   0.0000000   2.7928460   0.0000000   2.7928460   0.0000000   2.7928460   0.0000000   0.0000000   2.7928460
 AtZNuc=   1.0000000   6.0000000   1.0000000   6.0000000   1.0000000   6.0000000   1.0000000   6.0000000   6.0000000   1.0000000

  Atom        41          42          43          44          45          46          47
 IAtWgt=           1          12          12          12           1          12           1
 AtmWgt=   1.0078250  12.0000000  12.0000000  12.0000000   1.0078250  12.0000000   1.0078250
 NucSpn=           1           0           0           0           1           0           1
 AtZEff=  -0.0000000  -0.0000000  -0.0000000  -0.0000000  -0.0000000  -0.0000000  -0.0000000
 NQMom=    0.0000000   0.0000000   0.0000000   0.0000000   0.0000000   0.0000000   0.0000000
 NMagM=    2.7928460   0.0000000   0.0000000   0.0000000   2.7928460   0.0000000   2.7928460
 AtZNuc=   1.0000000   6.0000000   6.0000000   6.0000000   1.0000000   6.0000000   1.0000000
 Leave Link  101 at Thu Dec 22 17:47:23 2022, MaxMem=  1610612736 cpu:               0.6 elap:               0.1
 (Enter /aplic/Gaussian/g16b01_iqtc09/g16/l103.exe)

 GradGradGradGradGradGradGradGradGradGradGradGradGradGradGradGradGradGrad
 Berny optimization.
 Initialization pass.
 No Z-matrix variables, so optimization will use Cartesian coordinates.
 Trust Radius=3.00D-01 FncErr=1.00D-07 GrdErr=1.00D-06 EigMax=2.50D+02 EigMin=1.00D-04
 Number of steps in this run=    151 maximum allowed number of steps=    282.
 Step   0 in ReCalcFC=30 IGetFC= 4 compute analytic Hessian.
 GradGradGradGradGradGradGradGradGradGradGradGradGradGradGradGradGradGrad

 Leave Link  103 at Thu Dec 22 17:47:23 2022, MaxMem=  1610612736 cpu:               0.2 elap:               0.0
 (Enter /aplic/Gaussian/g16b01_iqtc09/g16/l202.exe)
 ---------------------------------------------------------------------------------------------------
                            Z-MATRIX (ANGSTROMS AND DEGREES)
   CD    Cent   Atom    N1       Length/X        N2       Alpha/Y        N3        Beta/Z          J
 ---------------------------------------------------------------------------------------------------
      1      1  Fe       0   4.177266          7.759472          4.166983
      2      2  S        0   8.514687          6.318297          3.901054
      3      3  S        0   2.723006         10.831987          1.005484
      4      4  N        0   2.287876          7.602859          4.584693
      5      5  N        0   3.853973          6.412495          2.811076
      6      6  N        0   4.633375          8.798151          5.732863
      7      7  N        0   4.430759          6.200841          5.431222
      8      8  N        0   3.882205          9.248413          3.034068
      9      9  N        0   6.046040          7.673298          3.729947
     10     10  C        0   3.327298          6.605530          1.581381
     11     11  H        0   3.124256          7.649269          1.298194
     12     12  C        0   3.067100          5.537615          0.715792
     13     13  H        0   2.646071          5.742742         -0.278597
     14     14  C        0   3.347178          4.229611          1.136225
     15     15  H        0   3.147395          3.370731          0.478794
     16     16  C        0   3.889202          4.035195          2.415502
     17     17  H        0   4.127757          3.027172          2.785208
     18     18  C        0   4.141746          5.147154          3.227240
     19     19  C        0   4.819821          5.052137          4.571448
     20     20  H        0   5.919943          5.105679          4.411291
     21     21  H        0   4.602879          4.078865          5.064750
     22     22  C        0   1.271467          8.259328          3.965612
     23     23  H        0   1.560878          9.076433          3.289757
     24     24  C        0   0.656766          6.152285          5.633290
     25     25  H        0   0.459838          5.302081          6.303226
     26     26  C        0   1.974022          6.568421          5.417559
     27     27  C        0   3.145804          5.983020          6.154232
     28     28  H        0   2.992176          4.906283          6.382296
     29     29  H        0   3.221030          6.505870          7.131110
     30     30  C        0   4.414555         10.119853          5.903411
     31     31  H        0   3.919475         10.623243          5.059548
     32     32  C        0   4.824903         10.792856          7.059137
     33     33  H        0   4.636396         11.871878          7.152254
     34     34  C        0   5.475851         10.075575          8.073337
     35     35  H        0   5.809520         10.577260          8.993499
     36     36  C        0   5.695010          8.700140          7.893672
     37     37  H        0   6.200175          8.099455          8.664231
     38     38  C        0   5.270573          8.089142          6.709367
     39     39  C        0   5.488079          6.629226          6.391446
     40     40  H        0   5.477802          6.007950          7.315023
     41     41  H        0   6.480898          6.491339          5.912569
     42     42  C        0   3.420907          9.934892          2.165663
     43     43  C        0   7.113948          7.135687          3.755948
     44     44  C        0  -0.068119          7.908050          4.155733
     45     45  H        0  -0.845934          8.478208          3.628072
     46     46  C        0  -0.392244          6.832054          4.995224
     47     47  H        0  -1.436707          6.523599          5.147227
 ---------------------------------------------------------------------------------------------------
                         Z-Matrix orientation:                         
 ---------------------------------------------------------------------
 Center     Atomic      Atomic             Coordinates (Angstroms)
 Number     Number       Type             X           Y           Z
 ---------------------------------------------------------------------
      1         26           0        4.177266    7.759472    4.166983
      2         16           0        8.514687    6.318297    3.901054
      3         16           0        2.723006   10.831987    1.005484
      4          7           0        2.287876    7.602859    4.584693
      5          7           0        3.853973    6.412495    2.811076
      6          7           0        4.633375    8.798151    5.732863
      7          7           0        4.430759    6.200841    5.431222
      8          7           0        3.882205    9.248413    3.034068
      9          7           0        6.046040    7.673298    3.729947
     10          6           0        3.327298    6.605530    1.581381
     11          1           0        3.124256    7.649269    1.298194
     12          6           0        3.067100    5.537615    0.715792
     13          1           0        2.646071    5.742742   -0.278597
     14          6           0        3.347178    4.229611    1.136225
     15          1           0        3.147395    3.370731    0.478794
     16          6           0        3.889202    4.035195    2.415502
     17          1           0        4.127757    3.027172    2.785208
     18          6           0        4.141746    5.147154    3.227240
     19          6           0        4.819821    5.052137    4.571448
     20          1           0        5.919943    5.105679    4.411291
     21          1           0        4.602879    4.078865    5.064750
     22          6           0        1.271467    8.259328    3.965612
     23          1           0        1.560878    9.076433    3.289757
     24          6           0        0.656766    6.152285    5.633290
     25          1           0        0.459838    5.302081    6.303226
     26          6           0        1.974022    6.568421    5.417559
     27          6           0        3.145804    5.983020    6.154232
     28          1           0        2.992176    4.906283    6.382296
     29          1           0        3.221030    6.505870    7.131110
     30          6           0        4.414555   10.119853    5.903411
     31          1           0        3.919475   10.623243    5.059548
     32          6           0        4.824903   10.792856    7.059137
     33          1           0        4.636396   11.871878    7.152254
     34          6           0        5.475851   10.075575    8.073337
     35          1           0        5.809520   10.577260    8.993499
     36          6           0        5.695010    8.700140    7.893672
     37          1           0        6.200175    8.099455    8.664231
     38          6           0        5.270573    8.089142    6.709367
     39          6           0        5.488079    6.629226    6.391446
     40          1           0        5.477802    6.007950    7.315023
     41          1           0        6.480898    6.491339    5.912569
     42          6           0        3.420907    9.934892    2.165663
     43          6           0        7.113948    7.135687    3.755948
     44          6           0       -0.068119    7.908050    4.155733
     45          1           0       -0.845934    8.478208    3.628072
     46          6           0       -0.392244    6.832054    4.995224
     47          1           0       -1.436707    6.523599    5.147227
 ---------------------------------------------------------------------
                    Distance matrix (angstroms):
                    1          2          3          4          5
     1  Fe   0.000000
     2  S    4.578310   0.000000
     3  S    4.642230   7.893117   0.000000
     4  N    1.941341   6.394579   4.840180   0.000000
     5  N    1.938388   4.787398   4.906237   2.648649   0.000000
     6  N    1.933616   4.956792   5.489455   2.872000   3.851709
     7  N    2.022842   4.362760   6.629562   2.697075   2.691216
     8  N    1.894070   5.549517   2.822517   2.766617   2.844812
     9  N    1.921131   2.821263   5.333158   3.854783   2.690559
    10  C    2.956242   5.689674   4.308105   3.330908   1.351591
    11  H    3.057928   6.132138   3.221238   3.391572   2.085883
    12  C    4.252039   6.358582   5.313445   4.454303   2.403081
    13  H    5.116145   7.227821   5.249304   5.219188   3.384328
    14  C    4.725935   6.221739   6.633103   4.938912   2.797669
    15  H    5.824467   7.014829   7.491852   5.958866   3.897579
    16  C    4.125640   5.367917   7.038789   4.471897   2.410244
    17  H    4.930154   5.596586   8.127477   5.249783   3.396474
    18  C    2.776434   4.576922   6.266287   3.363034   1.362752
    19  C    2.811784   3.962906   7.107700   3.594037   2.425355
    20  H    3.184215   2.909206   7.389894   4.411109   2.921761
    21  H    3.812348   4.655264   8.100384   4.243610   3.329525
    22  C    2.955347   7.499067   4.181853   1.359154   3.378325
    23  H    3.057679   7.505762   3.106512   2.092082   3.547391
    24  C    4.138481   8.048299   6.898228   2.421619   4.272556
    25  H    4.941819   8.466624   7.985478   3.404212   4.994826
    26  C    2.799433   6.718828   6.181050   1.364636   3.217496
    27  C    2.858121   5.832163   7.085255   2.413166   3.444219
    28  H    3.801676   6.216790   8.006031   3.316465   3.970514
    29  H    3.357373   6.204132   7.515757   2.925474   4.367153
    30  C    2.939879   5.939052   5.230503   3.549231   4.860174
    31  H    3.010700   6.402393   4.232085   3.465591   4.773920
    32  C    4.240921   6.603762   6.408293   4.768172   6.178696
    33  H    5.102404   7.513568   6.521136   5.507489   7.018752
    34  C    4.723374   6.384325   7.622654   5.333680   6.613625
    35  H    5.822322   7.168660   8.567371   6.378605   7.706607
    36  C    4.132386   5.437348   7.799020   4.874621   5.869882
    37  H    4.942974   5.587248   8.843859   5.674092   6.527628
    38  C    2.787063   4.641852   6.822579   3.694211   4.473765
    39  C    2.818496   3.931804   7.370035   3.801791   3.941614
    40  H    3.830063   4.579757   8.406576   4.491555   4.804791
    41  H    3.156256   2.865734   7.552646   4.536537   4.065244
    42  C    3.051199   6.483667   1.624149   3.545962   3.607130
    43  C    3.030208   1.628267   6.364594   4.918947   3.470335
    44  C    4.247999   8.732510   5.124827   2.414096   4.407674
    45  H    5.102896   9.610461   5.015533   3.391478   5.198440
    46  C    4.735664   8.988580   6.451533   2.818815   4.793422
    47  H    5.831377  10.031218   7.281446   3.918388   5.784569
                    6          7          8          9         10
     6  N    0.000000
     7  N    2.622606   0.000000
     8  N    2.837338   3.915987   0.000000
     9  N    2.696774   2.769765   2.765396   0.000000
    10  C    4.873215   4.025255   3.066440   3.626020   0.000000
    11  H    4.823242   4.570209   2.478912   3.801424   1.100369
    12  C    6.185088   4.953253   4.450710   4.745562   1.399067
    13  H    7.030118   5.999750   4.979107   5.599577   2.160554
    14  C    6.607189   4.848391   5.392257   5.086279   2.417344
    15  H    7.698718   5.846631   6.451086   6.122436   3.422278
    16  C    5.851874   3.752049   5.249792   4.428940   2.760093
    17  H    6.499886   4.143112   6.231057   5.114570   3.859350
    18  C    4.455292   2.459943   4.114001   3.203194   2.345003
    19  C    3.926356   1.486641   4.566333   3.013673   3.685262
    20  H    4.127488   2.111234   4.817817   2.659473   4.120649
    21  H    4.766442   2.160257   5.600649   4.096872   4.488318
    22  C    3.836135   4.045554   2.943130   4.816172   3.556128
    23  H    3.935282   4.592507   2.341690   4.720088   3.484846
    24  C    4.777441   3.779711   5.171597   5.914429   4.873924
    25  H    5.474142   4.163697   6.162266   6.591668   5.676013
    26  C    3.484720   2.484121   4.062579   4.544240   4.068046
    27  C    3.211757   1.490402   4.576079   4.140721   4.618596
    28  H    4.273398   2.156373   5.554897   4.900756   5.103776
    29  H    3.033870   2.108579   4.974379   4.572907   5.551641
    30  C    1.350505   3.947389   3.045642   3.656682   5.675609
    31  H    2.072189   4.467347   2.448288   3.871988   5.346993
    32  C    2.403026   4.887950   4.413067   4.722957   7.055659
    33  H    3.385628   5.930000   4.940732   5.597085   7.777068
    34  C    2.796318   4.804847   5.349592   4.996107   7.668310
    35  H    3.896190   5.808945   6.402749   6.016138   8.767871
    36  C    2.409517   3.729408   5.215613   4.302817   7.059637
    37  H    3.396462   4.145831   6.196114   4.955051   7.787939
    38  C    1.364652   2.429943   4.096254   3.106641   5.680991
    39  C    2.422496   1.491130   4.550929   2.912900   5.273164
    40  H    3.316852   2.163842   5.601170   3.993626   6.152757
    41  H    2.960915   2.125830   4.758196   2.519914   5.358864
    42  C    3.935375   5.062293   1.199240   3.801725   3.381538
    43  C    3.581232   3.298482   3.927962   1.195880   4.398696
    44  C    5.038220   4.978086   4.319695   6.133461   4.455637
    45  H    5.878379   6.023391   4.827148   6.939565   5.011161
    46  C    5.446696   4.883634   5.287328   6.615143   5.053774
    47  H    6.508644   5.883195   6.338839   7.702077   5.951278
                   11         12         13         14         15
    11  H    0.000000
    12  C    2.191242   0.000000
    13  H    2.519876   1.099160   0.000000
    14  C    3.430742   1.402170   2.186970   0.000000
    15  H    4.356356   2.181284   2.539961   1.099911   0.000000
    16  C    3.859411   2.412909   3.423341   1.402903   2.177758
    17  H    4.958024   3.421958   4.353919   2.185019   2.529563
    18  C    3.319199   2.759474   3.857805   2.417761   3.420288
    19  C    4.509349   4.263074   5.359577   3.827007   4.730111
    20  H    4.896641   4.688496   5.754923   4.255899   5.114841
    21  H    5.396393   4.837355   5.928654   4.127083   4.863217
    22  C    3.304560   4.603624   5.122114   5.343466   6.290897
    23  H    2.906419   4.627876   5.002428   5.596450   6.555424
    24  C    5.207929   5.510836   6.251037   5.581988   6.364676
    25  H    6.136673   6.170309   6.949402   6.015382   6.699036
    26  C    4.411399   4.935990   5.794790   5.068078   5.999452
    27  C    5.134000   5.457216   6.456683   5.319341   6.247772
    28  H    5.778366   5.702058   6.722124   5.301431   6.101914
    29  H    5.944715   6.489801   7.471057   6.413729   7.354443
    30  C    5.382999   7.051520   7.778423   7.652471   8.751161
    31  H    4.860522   6.742282   7.344157   7.523199   8.612685
    32  C    6.779587   8.422913   9.170240   8.963300  10.059965
    33  H    7.374755   9.165894   9.835916   9.811164  10.909706
    34  C    7.570966   8.973775   9.825268   9.318265  10.394889
    35  H    8.660340  10.071709  10.924822  10.396756  11.468268
    36  C    7.156356   8.272209   9.210223   8.435700   9.480156
    37  H    7.995151   8.919466   9.907569   8.932310   9.933865
    38  C    5.837890   6.876665   7.824656   7.046654   8.098847
    39  C    5.706957   6.266243   7.304268   6.161084   7.145351
    40  H    6.665984   7.041488   8.108767   6.773448   7.688937
    41  H    5.822397   6.290477   7.320986   6.144028   7.097630
    42  C    2.462636   4.643635   4.914153   5.797880   6.782960
    43  C    4.714018   5.307858   6.178978   5.431094   6.375592
    44  C    4.292290   5.223194   5.631933   5.857695   6.666834
    45  H    4.677380   5.695638   5.910917   6.468544   7.207701
    46  C    5.167363   5.652979   6.183134   5.970583   6.701339
    47  H    6.073267   6.394846   6.835084   6.651020   7.262839
                   16         17         18         19         20
    16  C    0.000000
    17  H    1.099864   0.000000
    18  C    1.399696   2.165620   0.000000
    19  C    2.558970   2.787488   1.508545   0.000000
    20  H    3.041878   3.190026   2.136746   1.113007   0.000000
    21  H    2.744040   2.555017   2.174932   1.112506   1.793325
    22  C    5.205639   6.076776   4.297595   4.821196   5.634932
    23  H    5.621343   6.590675   4.701491   5.334641   6.002181
    24  C    5.028407   5.470437   4.352522   4.434959   5.503608
    25  H    5.336660   5.568240   4.800223   4.697976   5.781932
    26  C    4.370068   4.910019   3.393601   3.333706   4.326948
    27  C    4.280743   4.588201   3.202789   2.484770   3.391669
    28  H    4.159195   4.214219   3.366587   2.576961   3.535030
    29  H    5.365412   5.640067   4.234859   3.349827   4.079471
    30  C    7.033105   7.753165   5.653676   5.255484   5.443763
    31  H    7.098892   7.931979   5.778781   5.664458   5.904712
    32  C    8.252567   8.891475   6.857411   6.256555   6.368217
    33  H    9.187422   9.877177   7.802072   7.294044   7.412275
    34  C    8.427025   8.914126   7.039448   6.158614   6.189319
    35  H    9.473979   9.918419   8.094274   7.145700   7.137718
    36  C    7.418423   7.793283   6.067283   5.011093   5.009763
    37  H    7.804192   8.036534   6.520282   5.286057   5.208524
    38  C    6.064647   6.506043   4.696249   3.741293   3.821503
    39  C    5.009345   5.275436   3.744509   2.499234   2.535491
    40  H    5.515498   5.588102   4.385885   2.978879   3.072660
    41  H    4.997900   5.226673   3.806502   2.574701   2.118622
    42  C    5.923525   6.971375   4.956712   5.620148   5.882969
    43  C    4.669993   5.171032   3.614939   3.204565   2.444597
    44  C    5.804119   6.580781   5.119337   5.676356   6.616304
    45  H    6.605468   7.427100   6.011118   6.687952   7.600294
    46  C    5.727841   6.308067   5.149924   5.523886   6.570012
    47  H    6.482267   6.983366   6.058060   6.452973   7.528107
                   21         22         23         24         25
    21  H    0.000000
    22  C    5.457351   0.000000
    23  H    6.113923   1.099181   0.000000
    24  C    4.493786   2.756563   3.854894   0.000000
    25  H    4.493870   3.855968   4.953687   1.100201   0.000000
    26  C    3.637754   2.336857   3.314869   1.398168   2.163510
    27  C    2.633599   3.672162   4.504044   2.548596   2.774940
    28  H    2.239400   4.477065   5.385403   2.750940   2.564302
    29  H    3.474148   4.110449   4.911201   2.990642   3.123889
    30  C    6.101832   4.134685   4.007915   5.471338   6.245844
    31  H    6.579966   3.714396   3.329829   5.564523   6.467657
    32  C    7.007464   5.349352   5.273347   6.398539   7.055055
    33  H    8.067828   5.876049   5.673818   7.131511   7.831138
    34  C    6.765664   6.152154   6.261624   6.676048   7.147022
    35  H    7.688965   7.158658   7.268845   7.577749   7.980237
    36  C    5.527362   5.932260   6.199087   6.081513   6.440757
    37  H    5.627856   6.811369   7.166766   6.611162   6.808165
    38  C    4.385533   4.852835   5.141042   5.118259   5.574570
    39  C    3.007996   5.130470   5.570656   4.913640   5.201183
    40  H    3.090403   5.829280   6.400051   5.107979   5.167393
    41  H    3.172662   5.835632   6.145604   5.840674   6.149806
    42  C    6.640393   3.266102   2.336717   5.828639   6.881155
    43  C    4.166844   5.953244   5.900883   6.796079   7.357168
    44  C    6.107961   1.397867   2.183727   2.406521   3.417827
    45  H    7.148974   2.155279   2.503013   3.418907   4.353076
    46  C    5.704046   2.421806   3.429364   1.403437   2.185802
    47  H    6.516143   3.426832   4.353467   2.181000   2.534822
                   26         27         28         29         30
    26  C    0.000000
    27  C    1.502816   0.000000
    28  H    2.174870   1.111295   0.000000
    29  H    2.120188   1.110550   1.780948   0.000000
    30  C    4.336464   4.334285   5.425293   3.999077   0.000000
    31  H    4.511601   4.829966   5.940806   4.661754   1.100277
    32  C    5.354265   5.174239   6.202318   4.577755   1.398936
    33  H    6.182561   6.156018   7.198320   5.549572   2.162964
    34  C    5.622819   5.085380   5.979117   4.326061   2.415965
    35  H    6.600696   6.021948   6.849510   5.171556   3.421081
    36  C    4.951880   4.111793   4.897236   3.393656   2.759762
    37  H    5.544846   4.484259   5.069007   3.710159   3.859090
    38  C    3.853389   3.042790   3.927933   2.623975   2.346512
    39  C    3.647019   2.441333   3.032845   2.387851   3.684441
    40  H    4.023801   2.605047   2.874367   2.318355   4.475588
    41  H    4.534634   3.382254   3.860599   3.480200   4.175640
    42  C    4.899126   5.621535   6.576527   6.037699   3.871990
    43  C    5.431536   4.777716   5.371867   5.190684   4.561093
    44  C    2.749027   4.246062   4.830486   4.651610   5.295358
    45  H    3.847298   5.342417   5.922456   5.718530   5.961955
    46  C    2.418074   3.818631   4.133626   4.210006   5.894043
    47  H    3.421719   4.722890   4.874024   5.062669   6.909568
                   31         32         33         34         35
    31  H    0.000000
    32  C    2.201573   0.000000
    33  H    2.540174   1.099315   0.000000
    34  C    3.435865   1.402436   2.186271   0.000000
    35  H    4.364671   2.181217   2.538196   1.099873   0.000000
    36  C    3.857863   2.415159   3.424951   1.404326   2.178603
    37  H    4.956293   3.423757   4.354613   2.186058   2.529930
    38  C    3.311954   2.762432   3.861013   2.418361   3.420300
    39  C    4.492955   4.268657   5.365593   3.834870   4.739301
    40  H    5.368098   4.836019   5.926222   4.137707   4.879130
    41  H    4.935703   4.749735   5.821444   4.304159   5.161165
    42  C    3.016118   5.162693   5.485929   6.256453   7.262056
    43  C    4.905821   5.433753   6.332824   5.474135   6.401398
    44  C    4.908163   6.379148   6.842772   7.126106   8.066926
    45  H    5.418434   7.020555   7.347979   7.891573   8.802778
    46  C    5.741792   6.867773   7.439074   7.377652   8.274941
    47  H    6.745625   7.815991   8.337074   8.304343   9.150616
                   36         37         38         39         40
    36  C    0.000000
    37  H    1.099898   0.000000
    38  C    1.398586   2.164662   0.000000
    39  C    2.566747   2.798965   1.509880   0.000000
    40  H    2.762228   2.591636   2.177412   1.113141   0.000000
    41  H    3.069396   3.199451   2.157023   1.110867   1.790738
    42  C    6.285399   7.302366   5.241498   5.749597   6.794674
    43  C    4.645606   5.084788   3.609680   3.137802   4.076246
    44  C    6.914713   7.723645   5.920766   6.124144   6.659484
    45  H    7.812077   8.669141   6.859840   7.153649   7.725634
    46  C    6.996099   7.650353   6.048641   6.047212   6.365379
    47  H    7.946174   8.554216   7.062493   7.036469   7.264686
                   41         42         43         44         45
    41  H    0.000000
    42  C    5.938089   0.000000
    43  C    2.338151   4.899297   0.000000
    44  C    6.926988   4.499085   7.234532   0.000000
    45  H    7.927739   4.739884   8.073316   1.099319   0.000000
    46  C    6.942456   5.672225   7.613863   1.402701   2.187410
    47  H    7.954575   6.642519   8.684700   2.184673   2.545062
                   46         47
    46  C    0.000000
    47  H    1.099615   0.000000
 Symmetry turned off by external request.
 Stoichiometry    C20H18FeN6S2
 Framework group  C1[X(C20H18FeN6S2)]
 Deg. of freedom   135
 Full point group                 C1      NOp   1
 Rotational constants (GHZ):           0.1671546           0.1477162           0.1297717
 Leave Link  202 at Thu Dec 22 17:47:23 2022, MaxMem=  1610612736 cpu:               0.1 elap:               0.0
 (Enter /aplic/Gaussian/g16b01_iqtc09/g16/l301.exe)
 Standard basis: def2SVP (5D, 7F)
 Ernie: Thresh=  0.10000D-02 Tol=  0.10000D-05 Strict=F.
   521 basis functions,   931 primitive gaussians,   554 cartesian basis functions
   119 alpha electrons      119 beta electrons
       nuclear repulsion energy      3835.0511486931 Hartrees.
 IExCor=  402 DFT=T Ex+Corr=B3LYP ExCW=0 ScaHFX=  0.150000
 ScaDFX=  0.850000  0.720000  1.000000  0.810000 ScalE2=  1.000000  1.000000
 IRadAn=      5 IRanWt=     -1 IRanGd=            0 ICorTp=0 IEmpDi=141
 NAtoms=   47 NActive=   47 NUniq=   47 SFac= 1.00D+00 NAtFMM=   60 NAOKFM=F Big=F
 Integral buffers will be    131072 words long.
 Raffenetti 2 integral format.
 Two-electron integral symmetry is turned off.
 R6Disp:  Grimme-D3(BJ) Dispersion energy=       -0.1420806506 Hartrees.
 Nuclear repulsion after empirical dispersion term =     3834.9090680425 Hartrees.
 Leave Link  301 at Thu Dec 22 17:47:23 2022, MaxMem=  1610612736 cpu:               0.3 elap:               0.1
 (Enter /aplic/Gaussian/g16b01_iqtc09/g16/l302.exe)
 NPDir=0 NMtPBC=     1 NCelOv=     1 NCel=       1 NClECP=     1 NCelD=      1
         NCelK=      1 NCelE2=     1 NClLst=     1 CellRange=     0.0.
 One-electron integrals computed using PRISM.
   1 Symmetry operations used in ECPInt.
 ECPInt:  NShTT=   28203 NPrTT=  109756 LenC2=   25796 LenP2D=   66923.
 LDataN:  DoStor=T MaxTD1= 6 Len=  172
 NBasis=   521 RedAO= T EigKep=  5.52D-04  NBF=   521
 NBsUse=   521 1.00D-06 EigRej= -1.00D+00 NBFU=   521
 Precomputing XC quadrature grid using
 IXCGrd= 4 IRadAn=           5 IRanWt=          -1 IRanGd=           0 AccXCQ= 0.00D+00.
 Generated NRdTot=       0 NPtTot=           0 NUsed=           0 NTot=          32
 NSgBfM=   544   544   544   544   544 MxSgAt=    47 MxSgA2=    47.
 Leave Link  302 at Thu Dec 22 17:47:24 2022, MaxMem=  1610612736 cpu:               8.2 elap:               1.2
 (Enter /aplic/Gaussian/g16b01_iqtc09/g16/l303.exe)
 DipDrv:  MaxL=1.
 Leave Link  303 at Thu Dec 22 17:47:24 2022, MaxMem=  1610612736 cpu:               0.9 elap:               0.2
 (Enter /aplic/Gaussian/g16b01_iqtc09/g16/l401.exe)
 ExpMin= 3.37D-02 ExpMax= 6.09D+04 ExpMxC= 9.15D+03 IAcc=3 IRadAn=         5 AccDes= 0.00D+00
 Harris functional with IExCor=  402 and IRadAn=       5 diagonalized for initial guess.
 HarFok:  IExCor=  402 AccDes= 0.00D+00 IRadAn=         5 IDoV= 1 UseB2=F ITyADJ=14
 ICtDFT=  3500011 ScaDFX=  1.000000  1.000000  1.000000  1.000000
 FoFCou: FMM=F IPFlag=           0 FMFlag=      100000 FMFlg1=           0
         NFxFlg=           0 DoJE=T BraDBF=F KetDBF=T FulRan=T
         wScrn=  0.000000 ICntrl=       500 IOpCl=  0 I1Cent=   200000004 NGrid=           0
         NMat0=    1 NMatS0=      1 NMatT0=    0 NMatD0=    1 NMtDS0=    0 NMtDT0=    0
 Symmetry not used in FoFCou.
 Harris En= -3160.46260227665    
 JPrj=0 DoOrth=F DoCkMO=F.
 Initial guess <Sx>= 0.0000 <Sy>= 0.0000 <Sz>= 0.0000 <S**2>= 0.0000 S= 0.0000
 Leave Link  401 at Thu Dec 22 17:47:31 2022, MaxMem=  1610612736 cpu:              46.9 elap:               6.9
 (Enter /aplic/Gaussian/g16b01_iqtc09/g16/l502.exe)
 Two-electron integral symmetry not used.
 UHF open shell SCF:
 Using DIIS extrapolation, IDIIS=  1040.
 NGot=  1610612736 LenX=  1609989891 LenY=  1609682421
 Requested convergence on RMS density matrix=1.00D-08 within 200 cycles.
 Requested convergence on MAX density matrix=1.00D-06.
 Requested convergence on             energy=1.00D-06.
 No special actions if energy rises.
 Fock matrices will be formed incrementally for  20 cycles.

 Cycle   1  Pass 1  IDiag  1:
 FoFJK:  IHMeth= 1 ICntrl=       0 DoSepK=F KAlg= 0 I1Cent=           0 FoldK=F
 IRaf= 850000000 NMat=       1 IRICut=       1 DoRegI=T DoRafI=F ISym2E= 0 IDoP0=0 IntGTp=1.
 FoFCou: FMM=F IPFlag=           0 FMFlag=      100000 FMFlg1=           0
         NFxFlg=           0 DoJE=F BraDBF=F KetDBF=F FulRan=T
         wScrn=  0.000000 ICntrl=         0 IOpCl=  1 I1Cent=           0 NGrid=           0
         NMat0=    1 NMatS0=      1 NMatT0=    0 NMatD0=    1 NMtDS0=    0 NMtDT0=    0
 Symmetry not used in FoFCou.
 E= -3159.11416131216    
 DIIS: error= 1.83D-02 at cycle   1 NSaved=   1.
 NSaved= 1 IEnMin= 1 EnMin= -3159.11416131216     IErMin= 1 ErrMin= 1.83D-02
 ErrMax= 1.83D-02  0.00D+00 EMaxC= 1.00D-01 BMatC= 1.97D+00 BMatP= 1.97D+00
 IDIUse=3 WtCom= 8.17D-01 WtEn= 1.83D-01
 Coeff-Com:  0.100D+01
 Coeff-En:   0.100D+01
 Coeff:      0.100D+01
 Gap=     0.176 Goal=   None    Shift=    0.000
 Gap=     0.176 Goal=   None    Shift=    0.000
 GapD=    0.176 DampG=1.000 DampE=0.250 DampFc=0.2500 IDamp=-1.
 Damping current iteration by 2.50D-01
 RMSDP=4.14D-03 MaxDP=2.02D-01              OVMax= 3.67D-01

 Cycle   2  Pass 1  IDiag  1:
 RMSU=  1.02D-03    CP:  9.92D-01
 E= -3159.24836166721     Delta-E=       -0.134200355046 Rises=F Damp=T
 DIIS: error= 9.50D-03 at cycle   2 NSaved=   2.
 NSaved= 2 IEnMin= 2 EnMin= -3159.24836166721     IErMin= 2 ErrMin= 9.50D-03
 ErrMax= 9.50D-03  0.00D+00 EMaxC= 1.00D-01 BMatC= 3.86D-01 BMatP= 1.97D+00
 IDIUse=3 WtCom= 9.05D-01 WtEn= 9.50D-02
 Coeff-Com: -0.130D+00 0.113D+01
 Coeff-En:   0.160D+00 0.840D+00
 Coeff:     -0.102D+00 0.110D+01
 Gap=     0.128 Goal=   None    Shift=    0.000
 Gap=     0.128 Goal=   None    Shift=    0.000
 RMSDP=2.86D-03 MaxDP=1.92D-01 DE=-1.34D-01 OVMax= 6.14D-01

 Cycle   3  Pass 1  IDiag  1:
 RMSU=  2.82D-03    CP:  9.74D-01  1.35D+00
 E= -3158.30095108461     Delta-E=        0.947410582602 Rises=F Damp=F
 DIIS: error= 1.21D-01 at cycle   3 NSaved=   3.
 NSaved= 3 IEnMin= 2 EnMin= -3159.24836166721     IErMin= 2 ErrMin= 9.50D-03
 ErrMax= 1.21D-01  0.00D+00 EMaxC= 1.00D-01 BMatC= 7.99D+00 BMatP= 3.86D-01
 IDIUse=2 WtCom= 0.00D+00 WtEn= 1.00D+00
 Coeff-En:   0.000D+00 0.832D+00 0.168D+00
 Coeff:      0.000D+00 0.832D+00 0.168D+00
 Gap=     0.146 Goal=   None    Shift=    0.000
 Gap=     0.146 Goal=   None    Shift=    0.000
 RMSDP=3.12D-03 MaxDP=2.90D-01 DE= 9.47D-01 OVMax= 3.90D-01

 Cycle   4  Pass 1  IDiag  1:
 RMSU=  1.48D-03    CP:  9.73D-01  1.95D+00  4.98D-02
 E= -3159.13102790219     Delta-E=       -0.830076817585 Rises=F Damp=F
 DIIS: error= 5.16D-02 at cycle   4 NSaved=   4.
 NSaved= 4 IEnMin= 2 EnMin= -3159.24836166721     IErMin= 2 ErrMin= 9.50D-03
 ErrMax= 5.16D-02  0.00D+00 EMaxC= 1.00D-01 BMatC= 2.86D+00 BMatP= 3.86D-01
 IDIUse=2 WtCom= 0.00D+00 WtEn= 1.00D+00
 Coeff-En:   0.000D+00 0.000D+00 0.352D+00 0.648D+00
 Coeff:      0.000D+00 0.000D+00 0.352D+00 0.648D+00
 Gap=     0.188 Goal=   None    Shift=    0.000
 Gap=     0.188 Goal=   None    Shift=    0.000
 RMSDP=1.89D-03 MaxDP=1.31D-01 DE=-8.30D-01 OVMax= 3.30D-01

 Cycle   5  Pass 1  IDiag  1:
 RMSU=  9.97D-04    CP:  9.82D-01  1.40D+00  3.08D-01  1.13D-01
 E= -3159.39005760717     Delta-E=       -0.259029704974 Rises=F Damp=F
 DIIS: error= 3.18D-02 at cycle   5 NSaved=   5.
 NSaved= 5 IEnMin= 5 EnMin= -3159.39005760717     IErMin= 2 ErrMin= 9.50D-03
 ErrMax= 3.18D-02  0.00D+00 EMaxC= 1.00D-01 BMatC= 1.03D+00 BMatP= 3.86D-01
 IDIUse=2 WtCom= 0.00D+00 WtEn= 1.00D+00
 EnCoef did    16 forward-backward iterations
 Coeff-En:   0.000D+00 0.000D+00 0.117D+00 0.423D+00 0.460D+00
 Coeff:      0.000D+00 0.000D+00 0.117D+00 0.423D+00 0.460D+00
 Gap=     0.077 Goal=   None    Shift=    0.000
 Gap=     0.077 Goal=   None    Shift=    0.000
 RMSDP=1.19D-03 MaxDP=7.58D-02 DE=-2.59D-01 OVMax= 1.14D-01

 Cycle   6  Pass 1  IDiag  1:
 RMSU=  6.51D-04    CP:  9.79D-01  1.25D+00  3.45D-01  5.54D-01  2.62D-01
 E= -3159.50009444118     Delta-E=       -0.110036834016 Rises=F Damp=F
 DIIS: error= 1.30D-02 at cycle   6 NSaved=   6.
 NSaved= 6 IEnMin= 6 EnMin= -3159.50009444118     IErMin= 2 ErrMin= 9.50D-03
 ErrMax= 1.30D-02  0.00D+00 EMaxC= 1.00D-01 BMatC= 5.45D-01 BMatP= 3.86D-01
 IDIUse=2 WtCom= 0.00D+00 WtEn= 1.00D+00
 EnCoef did     5 forward-backward iterations
 Coeff-En:   0.000D+00 0.000D+00 0.000D+00 0.180D+00 0.360D+00 0.460D+00
 Coeff:      0.000D+00 0.000D+00 0.000D+00 0.180D+00 0.360D+00 0.460D+00
 Gap=     0.097 Goal=   None    Shift=    0.000
 Gap=     0.097 Goal=   None    Shift=    0.000
 RMSDP=9.54D-04 MaxDP=5.80D-02 DE=-1.10D-01 OVMax= 1.13D-01

 Cycle   7  Pass 1  IDiag  1:
 RMSU=  3.07D-04    CP:  9.77D-01  1.78D+00  1.90D-01  4.88D-01  5.28D-01
                    CP:  2.37D-01
 E= -3159.57395822511     Delta-E=       -0.073863783927 Rises=F Damp=F
 DIIS: error= 1.39D-02 at cycle   7 NSaved=   7.
 NSaved= 7 IEnMin= 7 EnMin= -3159.57395822511     IErMin= 2 ErrMin= 9.50D-03
 ErrMax= 1.39D-02  0.00D+00 EMaxC= 1.00D-01 BMatC= 2.26D-01 BMatP= 3.86D-01
 IDIUse=3 WtCom= 8.61D-01 WtEn= 1.39D-01
 EnCoef did     2 forward-backward iterations
 Coeff-Com:  0.718D-02-0.559D-01-0.199D-01-0.509D-03 0.171D+00 0.386D+00
 Coeff-Com:  0.513D+00
 Coeff-En:   0.000D+00 0.000D+00 0.000D+00 0.000D+00 0.362D-01 0.320D+00
 Coeff-En:   0.644D+00
 Coeff:      0.618D-02-0.482D-01-0.172D-01-0.438D-03 0.152D+00 0.376D+00
 Coeff:      0.531D+00
 Gap=     0.079 Goal=   None    Shift=    0.000
 Gap=     0.079 Goal=   None    Shift=    0.000
 RMSDP=4.53D-04 MaxDP=3.17D-02 DE=-7.39D-02 OVMax= 5.94D-02

 Cycle   8  Pass 1  IDiag  1:
 RMSU=  1.22D-04    CP:  9.78D-01  1.52D+00  2.79D-01  4.71D-01  5.65D-01
                    CP:  5.25D-01  5.60D-01
 E= -3159.61341195932     Delta-E=       -0.039453734210 Rises=F Damp=F
 DIIS: error= 4.17D-03 at cycle   8 NSaved=   8.
 NSaved= 8 IEnMin= 8 EnMin= -3159.61341195932     IErMin= 8 ErrMin= 4.17D-03
 ErrMax= 4.17D-03  0.00D+00 EMaxC= 1.00D-01 BMatC= 1.19D-02 BMatP= 2.26D-01
 IDIUse=3 WtCom= 9.58D-01 WtEn= 4.17D-02
 Coeff-Com:  0.123D-01-0.239D-01-0.913D-02-0.108D-01 0.351D-01 0.168D+00
 Coeff-Com:  0.333D+00 0.496D+00
 Coeff-En:   0.000D+00 0.000D+00 0.000D+00 0.000D+00 0.000D+00 0.000D+00
 Coeff-En:   0.633D-01 0.937D+00
 Coeff:      0.118D-01-0.229D-01-0.875D-02-0.103D-01 0.336D-01 0.161D+00
 Coeff:      0.322D+00 0.514D+00
 Gap=     0.081 Goal=   None    Shift=    0.000
 Gap=     0.081 Goal=   None    Shift=    0.000
 RMSDP=1.22D-04 MaxDP=8.88D-03 DE=-3.95D-02 OVMax= 1.75D-02

 Cycle   9  Pass 1  IDiag  1:
 RMSU=  4.75D-05    CP:  9.78D-01  1.56D+00  2.52D-01  4.92D-01  5.35D-01
                    CP:  5.21D-01  6.12D-01  5.44D-01
 E= -3159.61555353179     Delta-E=       -0.002141572471 Rises=F Damp=F
 DIIS: error= 1.01D-03 at cycle   9 NSaved=   9.
 NSaved= 9 IEnMin= 9 EnMin= -3159.61555353179     IErMin= 9 ErrMin= 1.01D-03
 ErrMax= 1.01D-03  0.00D+00 EMaxC= 1.00D-01 BMatC= 9.69D-04 BMatP= 1.19D-02
 IDIUse=3 WtCom= 9.90D-01 WtEn= 1.01D-02
 Coeff-Com:  0.938D-02-0.149D-01-0.352D-03-0.110D-01-0.169D-02 0.376D-01
 Coeff-Com:  0.122D+00 0.279D+00 0.579D+00
 Coeff-En:   0.000D+00 0.000D+00 0.000D+00 0.000D+00 0.000D+00 0.000D+00
 Coeff-En:   0.000D+00 0.118D+00 0.882D+00
 Coeff:      0.929D-02-0.147D-01-0.348D-03-0.109D-01-0.168D-02 0.372D-01
 Coeff:      0.121D+00 0.277D+00 0.582D+00
 Gap=     0.081 Goal=   None    Shift=    0.000
 Gap=     0.081 Goal=   None    Shift=    0.000
 RMSDP=2.76D-05 MaxDP=1.44D-03 DE=-2.14D-03 OVMax= 2.43D-03

 Cycle  10  Pass 1  IDiag  1:
 RMSU=  1.61D-05    CP:  9.78D-01  1.56D+00  2.55D-01  4.88D-01  5.39D-01
                    CP:  5.19D-01  6.37D-01  6.26D-01  7.01D-01
 E= -3159.61572057665     Delta-E=       -0.000167044860 Rises=F Damp=F
 DIIS: error= 3.18D-04 at cycle  10 NSaved=  10.
 NSaved=10 IEnMin=10 EnMin= -3159.61572057665     IErMin=10 ErrMin= 3.18D-04
 ErrMax= 3.18D-04  0.00D+00 EMaxC= 1.00D-01 BMatC= 1.18D-04 BMatP= 9.69D-04
 IDIUse=3 WtCom= 9.97D-01 WtEn= 3.18D-03
 Coeff-Com:  0.548D-02-0.895D-02 0.763D-03-0.740D-02-0.301D-02 0.125D-01
 Coeff-Com:  0.539D-01 0.139D+00 0.370D+00 0.438D+00
 Coeff-En:   0.000D+00 0.000D+00 0.000D+00 0.000D+00 0.000D+00 0.000D+00
 Coeff-En:   0.000D+00 0.000D+00 0.000D+00 0.100D+01
 Coeff:      0.546D-02-0.893D-02 0.760D-03-0.738D-02-0.300D-02 0.124D-01
 Coeff:      0.537D-01 0.138D+00 0.368D+00 0.440D+00
 Gap=     0.081 Goal=   None    Shift=    0.000
 Gap=     0.081 Goal=   None    Shift=    0.000
 RMSDP=9.98D-06 MaxDP=6.19D-04 DE=-1.67D-04 OVMax= 1.26D-03

 Cycle  11  Pass 1  IDiag  1:
 RMSU=  6.02D-06    CP:  9.78D-01  1.56D+00  2.55D-01  4.87D-01  5.40D-01
                    CP:  5.19D-01  6.47D-01  6.30D-01  7.41D-01  5.96D-01
 E= -3159.61574012241     Delta-E=       -0.000019545764 Rises=F Damp=F
 DIIS: error= 2.13D-04 at cycle  11 NSaved=  11.
 NSaved=11 IEnMin=11 EnMin= -3159.61574012241     IErMin=11 ErrMin= 2.13D-04
 ErrMax= 2.13D-04  0.00D+00 EMaxC= 1.00D-01 BMatC= 3.24D-05 BMatP= 1.18D-04
 IDIUse=3 WtCom= 9.98D-01 WtEn= 2.13D-03
 Coeff-Com:  0.137D-02-0.285D-02 0.573D-03-0.322D-02-0.453D-03 0.353D-02
 Coeff-Com:  0.120D-01 0.373D-01 0.102D+00 0.241D+00 0.608D+00
 Coeff-En:   0.000D+00 0.000D+00 0.000D+00 0.000D+00 0.000D+00 0.000D+00
 Coeff-En:   0.000D+00 0.000D+00 0.000D+00 0.000D+00 0.100D+01
 Coeff:      0.136D-02-0.285D-02 0.572D-03-0.322D-02-0.452D-03 0.353D-02
 Coeff:      0.120D-01 0.373D-01 0.102D+00 0.241D+00 0.609D+00
 Gap=     0.080 Goal=   None    Shift=    0.000
 Gap=     0.080 Goal=   None    Shift=    0.000
 RMSDP=4.52D-06 MaxDP=2.08D-04 DE=-1.95D-05 OVMax= 3.56D-04

 Cycle  12  Pass 1  IDiag  1:
 RMSU=  2.73D-06    CP:  9.78D-01  1.56D+00  2.56D-01  4.86D-01  5.41D-01
                    CP:  5.21D-01  6.48D-01  6.40D-01  7.54D-01  6.41D-01
                    CP:  7.02D-01
 E= -3159.61574503486     Delta-E=       -0.000004912450 Rises=F Damp=F
 DIIS: error= 7.45D-05 at cycle  12 NSaved=  12.
 NSaved=12 IEnMin=12 EnMin= -3159.61574503486     IErMin=12 ErrMin= 7.45D-05
 ErrMax= 7.45D-05  0.00D+00 EMaxC= 1.00D-01 BMatC= 5.16D-06 BMatP= 3.24D-05
 IDIUse=1 WtCom= 1.00D+00 WtEn= 0.00D+00
 Coeff-Com: -0.530D-03 0.262D-03 0.176D-03-0.718D-03 0.805D-03 0.937D-03
 Coeff-Com: -0.286D-02-0.203D-02-0.168D-01 0.479D-01 0.367D+00 0.606D+00
 Coeff:     -0.530D-03 0.262D-03 0.176D-03-0.718D-03 0.805D-03 0.937D-03
 Coeff:     -0.286D-02-0.203D-02-0.168D-01 0.479D-01 0.367D+00 0.606D+00
 Gap=     0.080 Goal=   None    Shift=    0.000
 Gap=     0.080 Goal=   None    Shift=    0.000
 RMSDP=2.17D-06 MaxDP=1.16D-04 DE=-4.91D-06 OVMax= 1.76D-04

 Cycle  13  Pass 1  IDiag  1:
 RMSU=  1.19D-06    CP:  9.78D-01  1.56D+00  2.56D-01  4.86D-01  5.41D-01
                    CP:  5.22D-01  6.48D-01  6.44D-01  7.56D-01  6.59D-01
                    CP:  8.31D-01  6.93D-01
 E= -3159.61574592138     Delta-E=       -0.000000886516 Rises=F Damp=F
 DIIS: error= 1.59D-05 at cycle  13 NSaved=  13.
 NSaved=13 IEnMin=13 EnMin= -3159.61574592138     IErMin=13 ErrMin= 1.59D-05
 ErrMax= 1.59D-05  0.00D+00 EMaxC= 1.00D-01 BMatC= 4.53D-07 BMatP= 5.16D-06
 IDIUse=1 WtCom= 1.00D+00 WtEn= 0.00D+00
 Coeff-Com: -0.577D-03 0.652D-03 0.922D-05-0.599D-04 0.588D-03 0.402D-03
 Coeff-Com: -0.265D-02-0.399D-02-0.217D-01-0.988D-02 0.108D+00 0.373D+00
 Coeff-Com:  0.557D+00
 Coeff:     -0.577D-03 0.652D-03 0.922D-05-0.599D-04 0.588D-03 0.402D-03
 Coeff:     -0.265D-02-0.399D-02-0.217D-01-0.988D-02 0.108D+00 0.373D+00
 Coeff:      0.557D+00
 Gap=     0.080 Goal=   None    Shift=    0.000
 Gap=     0.080 Goal=   None    Shift=    0.000
 RMSDP=7.71D-07 MaxDP=5.45D-05 DE=-8.87D-07 OVMax= 9.05D-05

 Cycle  14  Pass 1  IDiag  1:
 RMSU=  4.71D-07    CP:  9.78D-01  1.56D+00  2.56D-01  4.85D-01  5.41D-01
                    CP:  5.22D-01  6.48D-01  6.44D-01  7.57D-01  6.72D-01
                    CP:  8.56D-01  7.87D-01  7.13D-01
 E= -3159.61574601736     Delta-E=       -0.000000095977 Rises=F Damp=F
 DIIS: error= 1.95D-06 at cycle  14 NSaved=  14.
 NSaved=14 IEnMin=14 EnMin= -3159.61574601736     IErMin=14 ErrMin= 1.95D-06
 ErrMax= 1.95D-06  0.00D+00 EMaxC= 1.00D-01 BMatC= 3.24D-08 BMatP= 4.53D-07
 IDIUse=1 WtCom= 1.00D+00 WtEn= 0.00D+00
 Coeff-Com: -0.283D-03 0.363D-03-0.704D-05 0.131D-04 0.228D-03 0.108D-03
 Coeff-Com: -0.119D-02-0.166D-02-0.983D-02-0.983D-02 0.242D-01 0.155D+00
 Coeff-Com:  0.325D+00 0.518D+00
 Coeff:     -0.283D-03 0.363D-03-0.704D-05 0.131D-04 0.228D-03 0.108D-03
 Coeff:     -0.119D-02-0.166D-02-0.983D-02-0.983D-02 0.242D-01 0.155D+00
 Coeff:      0.325D+00 0.518D+00
 Gap=     0.080 Goal=   None    Shift=    0.000
 Gap=     0.080 Goal=   None    Shift=    0.000
 RMSDP=2.83D-07 MaxDP=1.60D-05 DE=-9.60D-08 OVMax= 3.17D-05

 Cycle  15  Pass 1  IDiag  1:
 RMSU=  2.07D-07    CP:  9.78D-01  1.56D+00  2.56D-01  4.85D-01  5.41D-01
                    CP:  5.22D-01  6.48D-01  6.44D-01  7.58D-01  6.72D-01
                    CP:  8.58D-01  8.15D-01  7.52D-01  7.22D-01
 E= -3159.61574602433     Delta-E=       -0.000000006975 Rises=F Damp=F
 DIIS: error= 2.00D-06 at cycle  15 NSaved=  15.
 NSaved=15 IEnMin=15 EnMin= -3159.61574602433     IErMin=14 ErrMin= 1.95D-06
 ErrMax= 2.00D-06  0.00D+00 EMaxC= 1.00D-01 BMatC= 8.89D-09 BMatP= 3.24D-08
 IDIUse=1 WtCom= 1.00D+00 WtEn= 0.00D+00
 Coeff-Com: -0.128D-03 0.178D-03-0.545D-05 0.169D-04 0.759D-04-0.502D-05
 Coeff-Com: -0.504D-03-0.680D-03-0.406D-02-0.590D-02 0.100D-02 0.585D-01
 Coeff-Com:  0.157D+00 0.365D+00 0.429D+00
 Coeff:     -0.128D-03 0.178D-03-0.545D-05 0.169D-04 0.759D-04-0.502D-05
 Coeff:     -0.504D-03-0.680D-03-0.406D-02-0.590D-02 0.100D-02 0.585D-01
 Coeff:      0.157D+00 0.365D+00 0.429D+00
 Gap=     0.080 Goal=   None    Shift=    0.000
 Gap=     0.080 Goal=   None    Shift=    0.000
 RMSDP=1.32D-07 MaxDP=7.79D-06 DE=-6.97D-09 OVMax= 1.64D-05

 Cycle  16  Pass 1  IDiag  1:
 RMSU=  1.04D-07    CP:  9.78D-01  1.56D+00  2.56D-01  4.85D-01  5.41D-01
                    CP:  5.22D-01  6.48D-01  6.45D-01  7.58D-01  6.71D-01
                    CP:  8.61D-01  8.22D-01  7.72D-01  7.84D-01  7.74D-01
 E= -3159.61574602638     Delta-E=       -0.000000002046 Rises=F Damp=F
 DIIS: error= 7.34D-07 at cycle  16 NSaved=  16.
 NSaved=16 IEnMin=16 EnMin= -3159.61574602638     IErMin=16 ErrMin= 7.34D-07
 ErrMax= 7.34D-07  0.00D+00 EMaxC= 1.00D-01 BMatC= 1.29D-09 BMatP= 8.89D-09
 IDIUse=1 WtCom= 1.00D+00 WtEn= 0.00D+00
 Coeff-Com: -0.245D-04 0.411D-04-0.188D-05 0.822D-05-0.830D-06-0.377D-04
 Coeff-Com: -0.745D-04-0.128D-03-0.564D-03-0.181D-02-0.533D-02 0.268D-02
 Coeff-Com:  0.283D-01 0.110D+00 0.276D+00 0.591D+00
 Coeff:     -0.245D-04 0.411D-04-0.188D-05 0.822D-05-0.830D-06-0.377D-04
 Coeff:     -0.745D-04-0.128D-03-0.564D-03-0.181D-02-0.533D-02 0.268D-02
 Coeff:      0.283D-01 0.110D+00 0.276D+00 0.591D+00
 Gap=     0.080 Goal=   None    Shift=    0.000
 Gap=     0.080 Goal=   None    Shift=    0.000
 RMSDP=6.71D-08 MaxDP=4.20D-06 DE=-2.05D-09 OVMax= 1.41D-05

 Cycle  17  Pass 1  IDiag  1:
 RMSU=  4.32D-08    CP:  9.78D-01  1.56D+00  2.56D-01  4.85D-01  5.41D-01
                    CP:  5.22D-01  6.48D-01  6.45D-01  7.58D-01  6.71D-01
                    CP:  8.62D-01  8.28D-01  7.89D-01  8.20D-01  9.15D-01
                    CP:  9.69D-01
 E= -3159.61574602688     Delta-E=       -0.000000000497 Rises=F Damp=F
 DIIS: error= 2.21D-07 at cycle  17 NSaved=  17.
 NSaved=17 IEnMin=17 EnMin= -3159.61574602688     IErMin=17 ErrMin= 2.21D-07
 ErrMax= 2.21D-07  0.00D+00 EMaxC= 1.00D-01 BMatC= 2.56D-10 BMatP= 1.29D-09
 IDIUse=1 WtCom= 1.00D+00 WtEn= 0.00D+00
 Coeff-Com:  0.125D-04-0.150D-04 0.365D-07 0.125D-05-0.150D-04-0.215D-04
 Coeff-Com:  0.621D-04 0.375D-04 0.485D-03 0.168D-03-0.338D-02-0.111D-01
 Coeff-Com: -0.179D-01-0.200D-01 0.632D-01 0.372D+00 0.617D+00
 Coeff:      0.125D-04-0.150D-04 0.365D-07 0.125D-05-0.150D-04-0.215D-04
 Coeff:      0.621D-04 0.375D-04 0.485D-03 0.168D-03-0.338D-02-0.111D-01
 Coeff:     -0.179D-01-0.200D-01 0.632D-01 0.372D+00 0.617D+00
 Gap=     0.080 Goal=   None    Shift=    0.000
 Gap=     0.080 Goal=   None    Shift=    0.000
 RMSDP=3.92D-08 MaxDP=3.22D-06 DE=-4.97D-10 OVMax= 9.26D-06

 Cycle  18  Pass 1  IDiag  1:
 RMSU=  2.31D-08    CP:  9.78D-01  1.56D+00  2.56D-01  4.85D-01  5.41D-01
                    CP:  5.22D-01  6.48D-01  6.45D-01  7.58D-01  6.72D-01
                    CP:  8.63D-01  8.31D-01  7.99D-01  8.46D-01  9.89D-01
                    CP:  1.10D+00  1.02D+00
 E= -3159.61574602707     Delta-E=       -0.000000000194 Rises=F Damp=F
 DIIS: error= 9.74D-08 at cycle  18 NSaved=  18.
 NSaved=18 IEnMin=18 EnMin= -3159.61574602707     IErMin=18 ErrMin= 9.74D-08
 ErrMax= 9.74D-08  0.00D+00 EMaxC= 1.00D-01 BMatC= 4.91D-11 BMatP= 2.56D-10
 IDIUse=1 WtCom= 1.00D+00 WtEn= 0.00D+00
 Coeff-Com:  0.125D-04-0.170D-04 0.274D-06-0.211D-07-0.877D-05-0.581D-05
 Coeff-Com:  0.477D-04 0.304D-04 0.366D-03 0.374D-03-0.113D-02-0.724D-02
 Coeff-Com: -0.159D-01-0.308D-01-0.147D-01 0.104D+00 0.345D+00 0.620D+00
 Coeff:      0.125D-04-0.170D-04 0.274D-06-0.211D-07-0.877D-05-0.581D-05
 Coeff:      0.477D-04 0.304D-04 0.366D-03 0.374D-03-0.113D-02-0.724D-02
 Coeff:     -0.159D-01-0.308D-01-0.147D-01 0.104D+00 0.345D+00 0.620D+00
 Gap=     0.080 Goal=   None    Shift=    0.000
 Gap=     0.080 Goal=   None    Shift=    0.000
 RMSDP=2.07D-08 MaxDP=2.05D-06 DE=-1.94D-10 OVMax= 4.84D-06

 Cycle  19  Pass 1  IDiag  1:
 RMSU=  1.12D-08    CP:  9.78D-01  1.56D+00  2.56D-01  4.85D-01  5.41D-01
                    CP:  5.22D-01  6.48D-01  6.45D-01  7.58D-01  6.72D-01
                    CP:  8.64D-01  8.33D-01  8.01D-01  8.59D-01  1.02D+00
                    CP:  1.20D+00  1.20D+00  1.01D+00
 E= -3159.61574602709     Delta-E=       -0.000000000015 Rises=F Damp=F
 DIIS: error= 5.21D-08 at cycle  19 NSaved=  19.
 NSaved=19 IEnMin=19 EnMin= -3159.61574602709     IErMin=19 ErrMin= 5.21D-08
 ErrMax= 5.21D-08  0.00D+00 EMaxC= 1.00D-01 BMatC= 2.04D-11 BMatP= 4.91D-11
 IDIUse=1 WtCom= 1.00D+00 WtEn= 0.00D+00
 Coeff-Com:  0.617D-05-0.884D-05 0.175D-06-0.452D-06-0.246D-05 0.306D-05
 Coeff-Com:  0.198D-04 0.197D-04 0.150D-03 0.239D-03 0.163D-03-0.209D-02
 Coeff-Com: -0.655D-02-0.160D-01-0.275D-01-0.339D-01 0.633D-01 0.438D+00
 Coeff-Com:  0.584D+00
 Coeff:      0.617D-05-0.884D-05 0.175D-06-0.452D-06-0.246D-05 0.306D-05
 Coeff:      0.198D-04 0.197D-04 0.150D-03 0.239D-03 0.163D-03-0.209D-02
 Coeff:     -0.655D-02-0.160D-01-0.275D-01-0.339D-01 0.633D-01 0.438D+00
 Coeff:      0.584D+00
 Gap=     0.080 Goal=   None    Shift=    0.000
 Gap=     0.080 Goal=   None    Shift=    0.000
 RMSDP=1.18D-08 MaxDP=1.36D-06 DE=-1.46D-11 OVMax= 2.88D-06

 Cycle  20  Pass 1  IDiag  1:
 RMSU=  5.22D-09    CP:  9.78D-01  1.56D+00  2.56D-01  4.85D-01  5.41D-01
                    CP:  5.22D-01  6.48D-01  6.45D-01  7.58D-01  6.72D-01
                    CP:  8.64D-01  8.33D-01  8.04D-01  8.65D-01  1.05D+00
                    CP:  1.24D+00  1.30D+00  1.24D+00  9.64D-01
 E= -3159.61574602702     Delta-E=        0.000000000066 Rises=F Damp=F
 DIIS: error= 3.25D-08 at cycle  20 NSaved=  20.
 NSaved=20 IEnMin=19 EnMin= -3159.61574602709     IErMin=20 ErrMin= 3.25D-08
 ErrMax= 3.25D-08  0.00D+00 EMaxC= 1.00D-01 BMatC= 3.01D-12 BMatP= 2.04D-11
 IDIUse=1 WtCom= 1.00D+00 WtEn= 0.00D+00
 Coeff-Com: -0.168D-06 0.112D-06 0.935D-09-0.164D-06 0.104D-05 0.357D-05
 Coeff-Com: -0.246D-05 0.726D-05-0.143D-04 0.373D-04 0.436D-03 0.104D-02
 Coeff-Com:  0.122D-02 0.124D-02-0.746D-02-0.467D-01-0.719D-01 0.350D-01
 Coeff-Com:  0.260D+00 0.827D+00
 Coeff:     -0.168D-06 0.112D-06 0.935D-09-0.164D-06 0.104D-05 0.357D-05
 Coeff:     -0.246D-05 0.726D-05-0.143D-04 0.373D-04 0.436D-03 0.104D-02
 Coeff:      0.122D-02 0.124D-02-0.746D-02-0.467D-01-0.719D-01 0.350D-01
 Coeff:      0.260D+00 0.827D+00
 Gap=     0.080 Goal=   None    Shift=    0.000
 Gap=     0.080 Goal=   None    Shift=    0.000
 RMSDP=7.42D-09 MaxDP=9.80D-07 DE= 6.64D-11 OVMax= 1.95D-06

 SCF Done:  E(UB3LYP) =  -3159.61574603     A.U. after   20 cycles
            NFock= 20  Conv=0.74D-08     -V/T= 2.0052
 <Sx>= 0.0000 <Sy>= 0.0000 <Sz>= 0.0000 <S**2>=-0.0000 S=-0.0000
 <L.S>= 0.000000000000E+00
 KE= 3.143344445971D+03 PE=-1.512188612486D+04 EE= 4.984016864821D+03
 Annihilation of the first spin contaminant:
 S**2 before annihilation    -0.0000,   after    -0.0000
 Leave Link  502 at Thu Dec 22 17:56:41 2022, MaxMem=  1610612736 cpu:            4061.2 elap:             549.6
 (Enter /aplic/Gaussian/g16b01_iqtc09/g16/l508.exe)
 QCSCF skips out because SCF is already converged.
 Leave Link  508 at Thu Dec 22 17:56:41 2022, MaxMem=  1610612736 cpu:               0.1 elap:               0.0
 (Enter /aplic/Gaussian/g16b01_iqtc09/g16/l801.exe)
 DoSCS=F DFT=T ScalE2(SS,OS)=  1.000000  1.000000
 Range of M.O.s used for correlation:     1   521
 NBasis=   521 NAE=   119 NBE=   119 NFC=     0 NFV=     0
 NROrb=    521 NOA=   119 NOB=   119 NVA=   402 NVB=   402

 **** Warning!!: The smallest alpha delta epsilon is  0.80337564D-01


 **** Warning!!: The smallest beta delta epsilon is  0.80337564D-01

 Leave Link  801 at Thu Dec 22 17:56:41 2022, MaxMem=  1610612736 cpu:               0.4 elap:               0.1
 (Enter /aplic/Gaussian/g16b01_iqtc09/g16/l1101.exe)
 Using compressed storage, NAtomX=    47.
 Will process     48 centers per pass.
   1 Symmetry operations used in ECPInt.
 ECPInt:  NShTT=   28203 NPrTT=  109756 LenC2=   25796 LenP2D=   66923.
 LDataN:  DoStor=T MaxTD1= 7 Len=  274
 R6Disp: Adding Grimme-D3(BJ) dispersion energy 1st derivatives to the gradient.
 Leave Link 1101 at Thu Dec 22 17:56:42 2022, MaxMem=  1610612736 cpu:              10.0 elap:               1.5
 (Enter /aplic/Gaussian/g16b01_iqtc09/g16/l1102.exe)
 Symmetrizing basis deriv contribution to polar:
 IMax=3 JMax=2 DiffMx= 0.00D+00
 Leave Link 1102 at Thu Dec 22 17:56:42 2022, MaxMem=  1610612736 cpu:               0.7 elap:               0.2
 (Enter /aplic/Gaussian/g16b01_iqtc09/g16/l1110.exe)
 Forming Gx(P) for the SCF density, NAtomX=    47.
 Integral derivatives from FoFJK, PRISM(SPDF).
 Do as many integral derivatives as possible in FoFJK.
 G2DrvN: MDV=    1610608652.
 G2DrvN: will do    48 centers at a time, making    1 passes.
 Calling FoFCou, ICntrl=  3107 FMM=F I1Cent=   0 AccDes= 0.00D+00.
 FoFJK:  IHMeth= 1 ICntrl=    3107 DoSepK=F KAlg= 0 I1Cent=           0 FoldK=F
 IRaf=         0 NMat=       1 IRICut=       1 DoRegI=T DoRafI=F ISym2E= 0 IDoP0=0 IntGTp=1.
 FoFCou: FMM=F IPFlag=           0 FMFlag=      100000 FMFlg1=           0
         NFxFlg=           0 DoJE=F BraDBF=F KetDBF=F FulRan=T
         wScrn=  0.000000 ICntrl=      3107 IOpCl=  1 I1Cent=           0 NGrid=           0
         NMat0=    1 NMatS0=      1 NMatT0=    0 NMatD0=    1 NMtDS0=    0 NMtDT0=    0
 Symmetry not used in FoFCou.
 End of G2Drv F.D. properties file   721 does not exist.
 End of G2Drv F.D. properties file   722 does not exist.
 End of G2Drv F.D. properties file   788 does not exist.
 Leave Link 1110 at Thu Dec 22 18:17:33 2022, MaxMem=  1610612736 cpu:            9546.7 elap:            1251.0
 (Enter /aplic/Gaussian/g16b01_iqtc09/g16/l1002.exe)
 Minotr:  UHF open shell wavefunction.
          IDoAtm=11111111111111111111111111111111111111111111111
          Direct CPHF calculation.
          Differentiating once with respect to electric field.
                with respect to dipole field.
          Differentiating once with respect to nuclear coordinates.
          Requested convergence is 1.0D-08 RMS, and 1.0D-07 maximum.
          Secondary convergence is 1.0D-12 RMS, and 1.0D-12 maximum.
          NewPWx=T KeepS1=F KeepF1=F KeepIn=T MapXYZ=F SortEE=F KeepMc=T.
        14420 words used for storage of precomputed grid.
 Two-electron integral symmetry not used.
          MDV=    1610612736 using IRadAn=       1.
          Solving linear equations simultaneously, MaxMat=     384.
 FoF2E skips out because all densities are zero.
 CalDSu exits because no D1Ps are significant.
 FoFJK:  IHMeth= 1 ICntrl=       0 DoSepK=F KAlg= 0 I1Cent=           0 FoldK=F
 IRaf= 850000000 NMat=     141 IRICut=     352 DoRegI=T DoRafI=T ISym2E= 0 IDoP0=3 IntGTp=3.
 FoFCou: FMM=F IPFlag=           0 FMFlag=      100000 FMFlg1=           0
         NFxFlg=           0 DoJE=F BraDBF=F KetDBF=F FulRan=T
         wScrn=  0.000000 ICntrl=         0 IOpCl=  1 I1Cent=           0 NGrid=           0
         NMat0=  141 NMatS0=    141 NMatT0=    0 NMatD0=  141 NMtDS0=    0 NMtDT0=    0
 Symmetry not used in FoFCou.
 Raff kept on since  81.43% of shell-pairs survive, threshold=   0.20 IRatSp=81.
          There are   144 degrees of freedom in the 1st order CPHF.  IDoFFX=6 NUNeed=     3.
    141 vectors produced by pass  0 Test12= 9.57D-14 1.00D-09 XBig12= 1.30D+03 1.25D+01.
 AX will form   141 AO Fock derivatives at one time.
    141 vectors produced by pass  1 Test12= 9.57D-14 1.00D-09 XBig12= 5.95D+02 3.27D+00.
    141 vectors produced by pass  2 Test12= 9.57D-14 1.00D-09 XBig12= 1.27D+01 1.97D-01.
    141 vectors produced by pass  3 Test12= 9.57D-14 1.00D-09 XBig12= 8.70D-02 1.84D-02.
    141 vectors produced by pass  4 Test12= 9.57D-14 1.00D-09 XBig12= 2.31D-04 1.01D-03.
    136 vectors produced by pass  5 Test12= 9.57D-14 1.00D-09 XBig12= 2.66D-07 2.77D-05.
     37 vectors produced by pass  6 Test12= 9.57D-14 1.00D-09 XBig12= 2.28D-10 8.73D-07.
      3 vectors produced by pass  7 Test12= 9.57D-14 1.00D-09 XBig12= 1.79D-13 2.38D-08.
 InvSVY:  IOpt=1 It=  1 EMax= 5.68D-14
 Solved reduced A of dimension   881 with   144 vectors.
 FullF1:  Do perturbations      1 to       3.
 Isotropic polarizability for W=    0.000000      334.67 Bohr**3.
 End of Minotr F.D. properties file   721 does not exist.
 End of Minotr F.D. properties file   722 does not exist.
 End of Minotr F.D. properties file   788 does not exist.
 Leave Link 1002 at Thu Dec 22 19:06:37 2022, MaxMem=  1610612736 cpu:           22440.2 elap:            2943.2
 (Enter /aplic/Gaussian/g16b01_iqtc09/g16/l601.exe)
 Copying SCF densities to generalized density rwf, IOpCl= 1 IROHF=0.

 **********************************************************************

            Population analysis using the SCF Density.

 **********************************************************************

 Alpha  occ. eigenvalues -- -255.69028 -88.55991 -88.55179 -29.88345 -25.78107
 Alpha  occ. eigenvalues --  -25.78079 -25.77609 -14.31423 -14.29630 -14.29004
 Alpha  occ. eigenvalues --  -14.28834 -14.19060 -14.18848 -10.19195 -10.19086
 Alpha  occ. eigenvalues --  -10.18571 -10.18463 -10.17930 -10.17794 -10.17269
 Alpha  occ. eigenvalues --  -10.17118 -10.16863 -10.16175 -10.15866 -10.15771
 Alpha  occ. eigenvalues --  -10.15583 -10.15250 -10.15096 -10.15091 -10.14742
 Alpha  occ. eigenvalues --  -10.14480 -10.13028 -10.12785  -7.80212  -7.79411
 Alpha  occ. eigenvalues --   -5.79068  -5.78278  -5.78271  -5.78213  -5.77459
 Alpha  occ. eigenvalues --   -5.77426  -3.35447  -2.14220  -2.14096  -2.13435
 Alpha  occ. eigenvalues --   -0.97429  -0.95017  -0.94693  -0.93123  -0.83202
 Alpha  occ. eigenvalues --   -0.82776  -0.80739  -0.80164  -0.80002  -0.79524
 Alpha  occ. eigenvalues --   -0.79444  -0.76768  -0.71791  -0.71183  -0.67922
 Alpha  occ. eigenvalues --   -0.67306  -0.66077  -0.64597  -0.64063  -0.63879
 Alpha  occ. eigenvalues --   -0.62160  -0.61351  -0.59767  -0.54997  -0.53678
 Alpha  occ. eigenvalues --   -0.52508  -0.52413  -0.52014  -0.50129  -0.49354
 Alpha  occ. eigenvalues --   -0.49012  -0.48135  -0.46833  -0.46607  -0.45517
 Alpha  occ. eigenvalues --   -0.45046  -0.44445  -0.43798  -0.43777  -0.43480
 Alpha  occ. eigenvalues --   -0.43135  -0.42960  -0.42441  -0.41740  -0.40612
 Alpha  occ. eigenvalues --   -0.40279  -0.39617  -0.38612  -0.38384  -0.38147
 Alpha  occ. eigenvalues --   -0.37419  -0.36123  -0.35121  -0.34570  -0.33654
 Alpha  occ. eigenvalues --   -0.33371  -0.33007  -0.32625  -0.32018  -0.31482
 Alpha  occ. eigenvalues --   -0.30694  -0.30339  -0.30154  -0.30125  -0.28732
 Alpha  occ. eigenvalues --   -0.27884  -0.27408  -0.21573  -0.20889  -0.20197
 Alpha  occ. eigenvalues --   -0.18084  -0.16920  -0.16509  -0.16037
 Alpha virt. eigenvalues --   -0.08003  -0.06892  -0.06351  -0.05967  -0.05200
 Alpha virt. eigenvalues --   -0.04303  -0.00423  -0.00084   0.01938   0.03636
 Alpha virt. eigenvalues --    0.03823   0.04661   0.05032   0.06180   0.06637
 Alpha virt. eigenvalues --    0.06692   0.06880   0.07368   0.07434   0.07653
 Alpha virt. eigenvalues --    0.08008   0.08654   0.09119   0.09553   0.09705
 Alpha virt. eigenvalues --    0.09969   0.10120   0.11330   0.11766   0.12848
 Alpha virt. eigenvalues --    0.13059   0.13677   0.14837   0.15015   0.15463
 Alpha virt. eigenvalues --    0.15799   0.16262   0.17516   0.18198   0.18379
 Alpha virt. eigenvalues --    0.19289   0.21439   0.22737   0.23342   0.23578
 Alpha virt. eigenvalues --    0.24842   0.25051   0.25782   0.26117   0.26594
 Alpha virt. eigenvalues --    0.26696   0.27443   0.28024   0.28346   0.28601
 Alpha virt. eigenvalues --    0.31248   0.31909   0.32886   0.33876   0.34411
 Alpha virt. eigenvalues --    0.35644   0.36676   0.37446   0.37783   0.38869
 Alpha virt. eigenvalues --    0.39061   0.39400   0.40429   0.40905   0.41050
 Alpha virt. eigenvalues --    0.41439   0.41700   0.42240   0.42541   0.43180
 Alpha virt. eigenvalues --    0.43760   0.43931   0.44220   0.45250   0.45397
 Alpha virt. eigenvalues --    0.45762   0.46061   0.46349   0.47214   0.47767
 Alpha virt. eigenvalues --    0.47904   0.48613   0.49153   0.50088   0.51210
 Alpha virt. eigenvalues --    0.51846   0.52446   0.52615   0.53201   0.53548
 Alpha virt. eigenvalues --    0.53591   0.54686   0.55483   0.55830   0.56573
 Alpha virt. eigenvalues --    0.57108   0.57255   0.57751   0.58299   0.58725
 Alpha virt. eigenvalues --    0.59426   0.59825   0.59860   0.60161   0.60873
 Alpha virt. eigenvalues --    0.61139   0.61473   0.61658   0.62113   0.62567
 Alpha virt. eigenvalues --    0.63511   0.63813   0.64358   0.64535   0.65024
 Alpha virt. eigenvalues --    0.65416   0.65649   0.66117   0.66285   0.66797
 Alpha virt. eigenvalues --    0.67031   0.67257   0.67564   0.68141   0.69062
 Alpha virt. eigenvalues --    0.69552   0.70098   0.70704   0.70833   0.71154
 Alpha virt. eigenvalues --    0.71266   0.71532   0.71737   0.72027   0.73120
 Alpha virt. eigenvalues --    0.73465   0.73848   0.74087   0.74696   0.75430
 Alpha virt. eigenvalues --    0.75617   0.76989   0.78033   0.78292   0.79340
 Alpha virt. eigenvalues --    0.79889   0.80244   0.80893   0.81381   0.83230
 Alpha virt. eigenvalues --    0.84555   0.85899   0.86215   0.87161   0.88140
 Alpha virt. eigenvalues --    0.88344   0.89551   0.91431   0.91723   0.92308
 Alpha virt. eigenvalues --    0.93011   0.93783   0.95299   0.96140   0.96614
 Alpha virt. eigenvalues --    0.98333   0.99542   1.00837   1.02059   1.02547
 Alpha virt. eigenvalues --    1.03351   1.05004   1.06859   1.08687   1.10480
 Alpha virt. eigenvalues --    1.10806   1.11846   1.12645   1.14277   1.14420
 Alpha virt. eigenvalues --    1.15417   1.16092   1.16540   1.17252   1.19349
 Alpha virt. eigenvalues --    1.19520   1.20188   1.20980   1.21458   1.22017
 Alpha virt. eigenvalues --    1.22081   1.22458   1.22832   1.23358   1.23697
 Alpha virt. eigenvalues --    1.25110   1.25790   1.27078   1.28424   1.29291
 Alpha virt. eigenvalues --    1.30037   1.30890   1.31344   1.32263   1.33802
 Alpha virt. eigenvalues --    1.34680   1.34895   1.37131   1.37659   1.38962
 Alpha virt. eigenvalues --    1.39569   1.41497   1.42326   1.44815   1.45941
 Alpha virt. eigenvalues --    1.47115   1.48247   1.49397   1.51326   1.53052
 Alpha virt. eigenvalues --    1.54995   1.56629   1.58188   1.58461   1.60540
 Alpha virt. eigenvalues --    1.60995   1.62377   1.62861   1.63415   1.64641
 Alpha virt. eigenvalues --    1.65253   1.65743   1.66224   1.66387   1.66523
 Alpha virt. eigenvalues --    1.66835   1.67411   1.67689   1.68489   1.68885
 Alpha virt. eigenvalues --    1.69419   1.70170   1.70515   1.70992   1.71331
 Alpha virt. eigenvalues --    1.71898   1.72086   1.73400   1.73986   1.74118
 Alpha virt. eigenvalues --    1.74562   1.74991   1.75640   1.76083   1.76529
 Alpha virt. eigenvalues --    1.77502   1.78215   1.78966   1.79362   1.80512
 Alpha virt. eigenvalues --    1.80757   1.81981   1.83109   1.84217   1.86013
 Alpha virt. eigenvalues --    1.87116   1.87723   1.88896   1.89244   1.89558
 Alpha virt. eigenvalues --    1.89751   1.89925   1.90152   1.90951   1.91700
 Alpha virt. eigenvalues --    1.93064   1.93548   1.93811   1.94526   1.95073
 Alpha virt. eigenvalues --    1.96360   1.96662   1.97581   1.98321   1.98941
 Alpha virt. eigenvalues --    1.99681   2.01095   2.01720   2.03669   2.03915
 Alpha virt. eigenvalues --    2.04697   2.05657   2.06086   2.08427   2.08912
 Alpha virt. eigenvalues --    2.10187   2.10660   2.11469   2.13810   2.14808
 Alpha virt. eigenvalues --    2.15898   2.16743   2.17863   2.18678   2.20961
 Alpha virt. eigenvalues --    2.24571   2.25911   2.26119   2.26164   2.27467
 Alpha virt. eigenvalues --    2.27927   2.29300   2.29462   2.30070   2.31576
 Alpha virt. eigenvalues --    2.31819   2.33309   2.34192   2.34318   2.35328
 Alpha virt. eigenvalues --    2.35564   2.36540   2.37781   2.38771   2.39186
 Alpha virt. eigenvalues --    2.40009   2.40784   2.41852   2.42441   2.43608
 Alpha virt. eigenvalues --    2.44728   2.49251   2.52302   2.52506   2.53672
 Alpha virt. eigenvalues --    2.55271   2.56515   2.57767   2.59139   2.60999
 Alpha virt. eigenvalues --    2.63080   2.64377   2.65275   2.65721   2.66145
 Alpha virt. eigenvalues --    2.66438   2.67646   2.68531   2.69668   2.70918
 Alpha virt. eigenvalues --    2.71593   2.71816   2.72411   2.73285   2.75221
 Alpha virt. eigenvalues --    2.75674   2.76702   2.80288   2.81627   2.82890
 Alpha virt. eigenvalues --    2.83430   2.85227   2.86717   2.87228   2.90024
 Alpha virt. eigenvalues --    2.90589   2.92827   2.93884   2.96302   2.96962
 Alpha virt. eigenvalues --    2.97357   2.98166   2.99788   3.01220   3.02289
 Alpha virt. eigenvalues --    3.03460   3.04416   3.05342   3.06230   3.06533
 Alpha virt. eigenvalues --    3.07010   3.12923   3.26644   3.28069   3.29152
 Alpha virt. eigenvalues --    3.38463   3.43683   3.55617   3.55811   3.57208
 Alpha virt. eigenvalues --    4.12463   4.14478   4.14793   4.18074   4.28816
 Alpha virt. eigenvalues --    4.30834   4.31137
  Beta  occ. eigenvalues -- -255.69028 -88.55991 -88.55179 -29.88345 -25.78107
  Beta  occ. eigenvalues --  -25.78079 -25.77609 -14.31423 -14.29630 -14.29004
  Beta  occ. eigenvalues --  -14.28834 -14.19060 -14.18848 -10.19195 -10.19086
  Beta  occ. eigenvalues --  -10.18571 -10.18463 -10.17930 -10.17794 -10.17269
  Beta  occ. eigenvalues --  -10.17118 -10.16863 -10.16175 -10.15866 -10.15771
  Beta  occ. eigenvalues --  -10.15583 -10.15250 -10.15096 -10.15091 -10.14742
  Beta  occ. eigenvalues --  -10.14480 -10.13028 -10.12785  -7.80212  -7.79411
  Beta  occ. eigenvalues --   -5.79068  -5.78278  -5.78271  -5.78213  -5.77459
  Beta  occ. eigenvalues --   -5.77426  -3.35447  -2.14220  -2.14096  -2.13435
  Beta  occ. eigenvalues --   -0.97429  -0.95017  -0.94693  -0.93123  -0.83202
  Beta  occ. eigenvalues --   -0.82776  -0.80739  -0.80164  -0.80002  -0.79524
  Beta  occ. eigenvalues --   -0.79444  -0.76768  -0.71791  -0.71183  -0.67922
  Beta  occ. eigenvalues --   -0.67306  -0.66077  -0.64597  -0.64063  -0.63879
  Beta  occ. eigenvalues --   -0.62160  -0.61351  -0.59767  -0.54997  -0.53678
  Beta  occ. eigenvalues --   -0.52508  -0.52413  -0.52014  -0.50129  -0.49354
  Beta  occ. eigenvalues --   -0.49012  -0.48135  -0.46833  -0.46607  -0.45517
  Beta  occ. eigenvalues --   -0.45046  -0.44445  -0.43798  -0.43777  -0.43480
  Beta  occ. eigenvalues --   -0.43135  -0.42960  -0.42441  -0.41740  -0.40612
  Beta  occ. eigenvalues --   -0.40279  -0.39617  -0.38612  -0.38384  -0.38147
  Beta  occ. eigenvalues --   -0.37419  -0.36123  -0.35121  -0.34570  -0.33654
  Beta  occ. eigenvalues --   -0.33371  -0.33007  -0.32625  -0.32018  -0.31482
  Beta  occ. eigenvalues --   -0.30694  -0.30339  -0.30154  -0.30125  -0.28732
  Beta  occ. eigenvalues --   -0.27884  -0.27408  -0.21573  -0.20889  -0.20197
  Beta  occ. eigenvalues --   -0.18084  -0.16920  -0.16509  -0.16037
  Beta virt. eigenvalues --   -0.08003  -0.06892  -0.06351  -0.05967  -0.05200
  Beta virt. eigenvalues --   -0.04303  -0.00423  -0.00084   0.01938   0.03636
  Beta virt. eigenvalues --    0.03823   0.04661   0.05032   0.06180   0.06637
  Beta virt. eigenvalues --    0.06692   0.06880   0.07368   0.07434   0.07653
  Beta virt. eigenvalues --    0.08008   0.08654   0.09119   0.09553   0.09705
  Beta virt. eigenvalues --    0.09969   0.10120   0.11330   0.11766   0.12848
  Beta virt. eigenvalues --    0.13059   0.13677   0.14837   0.15015   0.15463
  Beta virt. eigenvalues --    0.15799   0.16262   0.17516   0.18198   0.18379
  Beta virt. eigenvalues --    0.19289   0.21439   0.22737   0.23342   0.23578
  Beta virt. eigenvalues --    0.24842   0.25051   0.25782   0.26117   0.26594
  Beta virt. eigenvalues --    0.26696   0.27443   0.28024   0.28346   0.28601
  Beta virt. eigenvalues --    0.31248   0.31909   0.32886   0.33876   0.34411
  Beta virt. eigenvalues --    0.35644   0.36676   0.37446   0.37783   0.38869
  Beta virt. eigenvalues --    0.39061   0.39400   0.40429   0.40905   0.41050
  Beta virt. eigenvalues --    0.41439   0.41700   0.42240   0.42541   0.43180
  Beta virt. eigenvalues --    0.43760   0.43931   0.44220   0.45250   0.45397
  Beta virt. eigenvalues --    0.45762   0.46061   0.46349   0.47214   0.47767
  Beta virt. eigenvalues --    0.47904   0.48613   0.49153   0.50088   0.51210
  Beta virt. eigenvalues --    0.51846   0.52446   0.52615   0.53201   0.53548
  Beta virt. eigenvalues --    0.53591   0.54686   0.55483   0.55830   0.56573
  Beta virt. eigenvalues --    0.57108   0.57255   0.57751   0.58299   0.58725
  Beta virt. eigenvalues --    0.59426   0.59825   0.59860   0.60161   0.60873
  Beta virt. eigenvalues --    0.61139   0.61473   0.61658   0.62113   0.62567
  Beta virt. eigenvalues --    0.63511   0.63813   0.64358   0.64535   0.65024
  Beta virt. eigenvalues --    0.65416   0.65649   0.66117   0.66285   0.66797
  Beta virt. eigenvalues --    0.67031   0.67257   0.67564   0.68141   0.69062
  Beta virt. eigenvalues --    0.69552   0.70098   0.70704   0.70833   0.71154
  Beta virt. eigenvalues --    0.71266   0.71532   0.71737   0.72027   0.73120
  Beta virt. eigenvalues --    0.73465   0.73848   0.74087   0.74696   0.75430
[...]
    39   Atom       -0.000000     -0.000000      0.000000
    40   Atom       -0.000000      0.000000      0.000000
    41   Atom       -0.000000     -0.000000      0.000000
    42   Atom       -0.000000      0.000000     -0.000000
    43   Atom       -0.000000     -0.000000     -0.000000
    44   Atom       -0.000000     -0.000000     -0.000000
    45   Atom        0.000000     -0.000000     -0.000000
    46   Atom       -0.000000      0.000000     -0.000000
    47   Atom       -0.000000     -0.000000      0.000000
 --------------------------------------------------------


 ---------------------------------------------------------------------------------
              Anisotropic Spin Dipole Couplings in Principal Axis System
 ---------------------------------------------------------------------------------

       Atom             a.u.   MegaHertz   Gauss  10(-4) cm-1        Axes

              Baa    -0.0000    -0.000    -0.000    -0.000  0.2061  0.9768  0.0588
     1 Fe(57) Bbb    -0.0000    -0.000    -0.000    -0.000  0.9733 -0.2108  0.0905
              Bcc     0.0000     0.000     0.000     0.000 -0.1008 -0.0385  0.9942
 
              Baa    -0.0000    -0.000    -0.000    -0.000  0.8288 -0.4870  0.2756
     2 S(33)  Bbb     0.0000     0.000     0.000     0.000 -0.1565  0.2711  0.9497
              Bcc     0.0000     0.000     0.000     0.000  0.5373  0.8302 -0.1485
 
              Baa    -0.0000    -0.000    -0.000    -0.000  0.1425 -0.6003  0.7870
     3 S(33)  Bbb     0.0000     0.000     0.000     0.000  0.2138  0.7950  0.5677
              Bcc     0.0000     0.000     0.000     0.000  0.9664 -0.0874 -0.2416
 
              Baa    -0.0000    -0.000    -0.000    -0.000  0.4510  0.2605  0.8537
     4 N(14)  Bbb     0.0000     0.000     0.000     0.000 -0.2044  0.9612 -0.1853
              Bcc     0.0000     0.000     0.000     0.000  0.8688  0.0910 -0.4867
 
              Baa    -0.0000    -0.000    -0.000    -0.000  0.7114  0.2936 -0.6386
     5 N(14)  Bbb     0.0000     0.000     0.000     0.000 -0.5778  0.7615 -0.2936
              Bcc     0.0000     0.000     0.000     0.000  0.4001  0.5779  0.7113
 
              Baa    -0.0000    -0.000    -0.000    -0.000  0.9920  0.0472  0.1173
     6 N(14)  Bbb    -0.0000    -0.000    -0.000    -0.000 -0.0979 -0.3007  0.9487
              Bcc     0.0000     0.000     0.000     0.000 -0.0801  0.9525  0.2937
 
              Baa    -0.0000    -0.000    -0.000    -0.000  0.6718  0.5545 -0.4913
     7 N(14)  Bbb     0.0000     0.000     0.000     0.000 -0.3335  0.8185  0.4678
              Bcc     0.0000     0.000     0.000     0.000  0.6615 -0.1504  0.7347
 
              Baa    -0.0000    -0.000    -0.000    -0.000  0.9952  0.0434 -0.0882
     8 N(14)  Bbb    -0.0000    -0.000    -0.000    -0.000  0.0365  0.6700  0.7415
              Bcc     0.0000     0.000     0.000     0.000 -0.0913  0.7411 -0.6652
 
              Baa    -0.0000    -0.000    -0.000    -0.000 -0.4773  0.8762  0.0673
     9 N(14)  Bbb     0.0000     0.000     0.000     0.000  0.1716  0.0178  0.9850
              Bcc     0.0000     0.000     0.000     0.000  0.8618  0.4817 -0.1588
 
              Baa    -0.0000    -0.000    -0.000    -0.000  0.9867 -0.1241 -0.1050
    10 C(13)  Bbb    -0.0000    -0.000    -0.000    -0.000  0.0982  0.9697 -0.2237
              Bcc     0.0000     0.000     0.000     0.000  0.1296  0.2104  0.9690
 
              Baa    -0.0000    -0.000    -0.000    -0.000  0.8461 -0.5324 -0.0252
    11 H(1)   Bbb    -0.0000    -0.000    -0.000    -0.000  0.3982  0.6629 -0.6340
              Bcc     0.0000     0.000     0.000     0.000  0.3543  0.5264  0.7729
 
              Baa    -0.0000    -0.000    -0.000    -0.000  0.8961  0.3313 -0.2953
    12 C(13)  Bbb    -0.0000    -0.000    -0.000    -0.000 -0.3704  0.9248 -0.0865
              Bcc     0.0000     0.000     0.000     0.000  0.2444  0.1869  0.9515
 
              Baa    -0.0000    -0.000    -0.000    -0.000  0.9112  0.1282 -0.3916
    13 H(1)   Bbb     0.0000     0.000     0.000     0.000 -0.0278  0.9673  0.2519
              Bcc     0.0000     0.000     0.000     0.000  0.4111 -0.2187  0.8850
 
              Baa    -0.0000    -0.000    -0.000    -0.000  0.8224  0.0926  0.5613
    14 C(13)  Bbb    -0.0000    -0.000    -0.000    -0.000 -0.5415 -0.1746  0.8223
              Bcc     0.0000     0.000     0.000     0.000 -0.1742  0.9803  0.0935
 
              Baa    -0.0000    -0.000    -0.000    -0.000 -0.5333  0.6380 -0.5554
    15 H(1)   Bbb    -0.0000    -0.000    -0.000    -0.000  0.7951  0.1541 -0.5865
              Bcc     0.0000     0.000     0.000     0.000  0.2886  0.7544  0.5895
 
              Baa    -0.0000    -0.000    -0.000    -0.000  0.9322  0.1520 -0.3285
    16 C(13)  Bbb     0.0000     0.000     0.000     0.000  0.3460 -0.6407  0.6854
              Bcc     0.0000     0.000     0.000     0.000  0.1063  0.7526  0.6498
 
              Baa    -0.0000    -0.000    -0.000    -0.000  0.8442  0.0362 -0.5348
    17 H(1)   Bbb    -0.0000    -0.000    -0.000    -0.000  0.5217  0.1734  0.8353
              Bcc     0.0000     0.000     0.000     0.000 -0.1230  0.9842 -0.1275
 
              Baa    -0.0000    -0.000    -0.000    -0.000  0.7794  0.1231 -0.6143
    18 C(13)  Bbb    -0.0000    -0.000    -0.000    -0.000 -0.1878  0.9813 -0.0416
              Bcc     0.0000     0.000     0.000     0.000  0.5977  0.1478  0.7880
 
              Baa    -0.0000    -0.000    -0.000    -0.000 -0.0038  0.9096 -0.4154
    19 C(13)  Bbb    -0.0000    -0.000    -0.000    -0.000  0.9593 -0.1140 -0.2585
              Bcc     0.0000     0.000     0.000     0.000  0.2825  0.3994  0.8721
 
              Baa    -0.0000    -0.000    -0.000    -0.000  0.5417  0.7567 -0.3660
    20 H(1)   Bbb     0.0000     0.000     0.000     0.000  0.6468 -0.0971  0.7564
              Bcc     0.0000     0.000     0.000     0.000 -0.5369  0.6465  0.5421
 
              Baa    -0.0000    -0.000    -0.000    -0.000  0.5323  0.6813 -0.5024
    21 H(1)   Bbb    -0.0000    -0.000    -0.000    -0.000  0.7795 -0.6260 -0.0231
              Bcc     0.0000     0.000     0.000     0.000  0.3303  0.3793  0.8643
 
              Baa    -0.0000    -0.000    -0.000    -0.000  0.2113  0.7179 -0.6633
    22 C(13)  Bbb     0.0000     0.000     0.000     0.000  0.6169  0.4285  0.6602
              Bcc     0.0000     0.000     0.000     0.000  0.7582 -0.5486 -0.3523
 
              Baa    -0.0000    -0.000    -0.000    -0.000  0.3867  0.6914 -0.6103
    23 H(1)   Bbb     0.0000     0.000     0.000     0.000 -0.0159  0.6667  0.7451
              Bcc     0.0000     0.000     0.000     0.000  0.9221 -0.2784  0.2688
 
              Baa    -0.0000    -0.000    -0.000    -0.000  0.6025  0.4656  0.6482
    24 C(13)  Bbb    -0.0000    -0.000    -0.000    -0.000  0.7970 -0.3092 -0.5188
              Bcc     0.0000     0.000     0.000     0.000 -0.0411  0.8292 -0.5574
 
              Baa    -0.0000    -0.000    -0.000    -0.000 -0.2467  0.8359  0.4902
    25 H(1)   Bbb    -0.0000    -0.000    -0.000    -0.000  0.5397 -0.3016  0.7859
              Bcc     0.0000     0.000     0.000     0.000  0.8049  0.4585 -0.3768
 
              Baa    -0.0000    -0.000    -0.000    -0.000  0.1368  0.9903  0.0250
    26 C(13)  Bbb    -0.0000    -0.000    -0.000    -0.000 -0.1350 -0.0063  0.9908
              Bcc     0.0000     0.000     0.000     0.000  0.9814 -0.1389  0.1328
 
              Baa    -0.0000    -0.000    -0.000    -0.000  0.1421  0.9880  0.0611
    27 C(13)  Bbb     0.0000     0.000     0.000     0.000 -0.6110  0.0390  0.7907
              Bcc     0.0000     0.000     0.000     0.000  0.7788 -0.1497  0.6091
 
              Baa    -0.0000    -0.000    -0.000    -0.000 -0.4384 -0.1526  0.8858
    28 H(1)   Bbb     0.0000     0.000     0.000     0.000  0.8964 -0.1468  0.4183
              Bcc     0.0000     0.000     0.000     0.000  0.0662  0.9773  0.2011
 
              Baa    -0.0000    -0.000    -0.000    -0.000  0.1458  0.8041 -0.5763
    29 H(1)   Bbb     0.0000     0.000     0.000     0.000  0.9139 -0.3326 -0.2328
              Bcc     0.0000     0.000     0.000     0.000  0.3789  0.4928  0.7834
 
              Baa    -0.0000    -0.000    -0.000    -0.000  0.7201 -0.3080  0.6218
    30 C(13)  Bbb     0.0000     0.000     0.000     0.000 -0.5975  0.1805  0.7813
              Bcc     0.0000     0.000     0.000     0.000  0.3529  0.9341  0.0540
 
              Baa    -0.0000    -0.000    -0.000    -0.000  0.3026  0.4212  0.8550
    31 H(1)   Bbb    -0.0000    -0.000    -0.000    -0.000  0.9056  0.1526 -0.3957
              Bcc     0.0000     0.000     0.000     0.000 -0.2972  0.8940 -0.3352
 
              Baa    -0.0000    -0.000    -0.000    -0.000  0.2928 -0.2452  0.9242
    32 C(13)  Bbb     0.0000     0.000     0.000     0.000  0.9449  0.2220 -0.2405
              Bcc     0.0000     0.000     0.000     0.000 -0.1462  0.9437  0.2967
 
              Baa    -0.0000    -0.000    -0.000    -0.000  0.2164  0.3621  0.9067
    33 H(1)   Bbb    -0.0000    -0.000    -0.000    -0.000  0.9711  0.0157 -0.2380
              Bcc     0.0000     0.000     0.000     0.000 -0.1004  0.9320 -0.3482
 
              Baa    -0.0000    -0.000    -0.000    -0.000 -0.6814 -0.2215  0.6976
    34 C(13)  Bbb     0.0000     0.000     0.000     0.000 -0.5491  0.7849 -0.2872
              Bcc     0.0000     0.000     0.000     0.000  0.4839  0.5787  0.6565
 
              Baa    -0.0000    -0.000    -0.000    -0.000  0.1734  0.9828  0.0627
    35 H(1)   Bbb    -0.0000    -0.000    -0.000    -0.000  0.9506 -0.1504 -0.2717
              Bcc     0.0000     0.000     0.000     0.000  0.2576 -0.1067  0.9603
 
              Baa    -0.0000    -0.000    -0.000    -0.000  0.4203 -0.5983  0.6822
    36 C(13)  Bbb     0.0000     0.000     0.000     0.000  0.8912  0.1307 -0.4345
              Bcc     0.0000     0.000     0.000     0.000  0.1708  0.7906  0.5881
 
              Baa    -0.0000    -0.000    -0.000    -0.000 -0.4929  0.6161 -0.6144
    37 H(1)   Bbb    -0.0000    -0.000    -0.000    -0.000  0.8529  0.2026 -0.4811
              Bcc     0.0000     0.000     0.000     0.000  0.1719  0.7612  0.6254
 
              Baa    -0.0000    -0.000    -0.000    -0.000  0.4497  0.7180 -0.5312
    38 C(13)  Bbb    -0.0000    -0.000    -0.000    -0.000  0.7994 -0.5889 -0.1193
              Bcc     0.0000     0.000     0.000     0.000  0.3985  0.3710  0.8388
 
              Baa    -0.0000    -0.000    -0.000    -0.000  0.3500 -0.1310  0.9276
    39 C(13)  Bbb     0.0000     0.000     0.000     0.000  0.1478  0.9855  0.0834
              Bcc     0.0000     0.000     0.000     0.000  0.9250 -0.1079 -0.3643
 
              Baa    -0.0000    -0.000    -0.000    -0.000 -0.1607 -0.6190  0.7688
    40 H(1)   Bbb     0.0000     0.000     0.000     0.000  0.0173  0.7770  0.6292
              Bcc     0.0000     0.000     0.000     0.000  0.9869 -0.1144  0.1142
 
              Baa    -0.0000    -0.000    -0.000    -0.000  0.4213  0.3836  0.8218
    41 H(1)   Bbb    -0.0000    -0.000    -0.000    -0.000  0.4257  0.7165 -0.5527
              Bcc     0.0000     0.000     0.000     0.000  0.8008 -0.5827 -0.1386
 
              Baa    -0.0000    -0.000    -0.000    -0.000 -0.3148  0.4183  0.8520
    42 C(13)  Bbb    -0.0000    -0.000    -0.000    -0.000  0.5247  0.8247 -0.2111
              Bcc     0.0000     0.000     0.000     0.000  0.7909 -0.3806  0.4791
 
              Baa    -0.0000    -0.000    -0.000    -0.000  0.8277  0.4217  0.3704
    43 C(13)  Bbb    -0.0000    -0.000    -0.000    -0.000 -0.3803 -0.0639  0.9226
              Bcc     0.0000     0.000     0.000     0.000 -0.4127  0.9045 -0.1075
 
              Baa    -0.0000    -0.000    -0.000    -0.000  0.2569  0.1607  0.9530
    44 C(13)  Bbb     0.0000     0.000     0.000     0.000  0.0647  0.9810 -0.1828
              Bcc     0.0000     0.000     0.000     0.000  0.9643 -0.1086 -0.2416
 
              Baa    -0.0000    -0.000    -0.000    -0.000 -0.1702  0.6539  0.7372
    45 H(1)   Bbb    -0.0000    -0.000    -0.000    -0.000  0.9104 -0.1820  0.3716
              Bcc     0.0000     0.000     0.000     0.000  0.3772  0.7343 -0.5643
 
              Baa    -0.0000    -0.000    -0.000    -0.000  0.5776  0.8085 -0.1124
    46 C(13)  Bbb     0.0000     0.000     0.000     0.000 -0.1168  0.2182  0.9689
              Bcc     0.0000     0.000     0.000     0.000  0.8079 -0.5465  0.2205
 
              Baa    -0.0000    -0.000    -0.000    -0.000  0.9683 -0.0139  0.2495
    47 H(1)   Bbb     0.0000     0.000     0.000     0.000 -0.1934 -0.6737  0.7132
              Bcc     0.0000     0.000     0.000     0.000 -0.1582  0.7389  0.6550
 

 ---------------------------------------------------------------------------------

 No NMR shielding tensors so no spin-rotation constants.
 Leave Link  601 at Thu Dec 22 20:10:35 2022, MaxMem=  1610612736 cpu:               5.9 elap:               0.9
 (Enter /aplic/Gaussian/g16b01_iqtc09/g16/l716.exe)
 Dipole        =-3.03428039D+00-2.80396691D+00 3.54061780D+00
 Polarizability= 0.00000000D+00 0.00000000D+00 0.00000000D+00
                 0.00000000D+00 0.00000000D+00 0.00000000D+00
 -------------------------------------------------------------------
 Center     Atomic                   Forces (Hartrees/Bohr)
 Number     Number              X              Y              Z
 -------------------------------------------------------------------
      1       26           0.000000949   -0.000001293    0.000000103
      2       16          -0.000005304    0.000000571   -0.000001171
      3       16           0.000030180   -0.000026887    0.000034845
      4        7          -0.000001498   -0.000000415    0.000001560
      5        7           0.000001797    0.000000754    0.000001202
      6        7           0.000002514   -0.000002141   -0.000000498
      7        7           0.000000211    0.000000825   -0.000000092
      8        7          -0.000029070    0.000044631   -0.000057317
      9        7           0.000008907   -0.000003131   -0.000000329
     10        6          -0.000000015    0.000002214    0.000002602
     11        1           0.000000319    0.000000350    0.000000157
     12        6          -0.000001094   -0.000003315   -0.000002067
     13        1          -0.000000480   -0.000000887   -0.000000695
     14        6          -0.000000872   -0.000000570    0.000000356
     15        1          -0.000001266   -0.000003404   -0.000002017
     16        6          -0.000001295   -0.000003441   -0.000001315
     17        1          -0.000000450   -0.000000822    0.000000050
     18        6          -0.000000293    0.000003565    0.000002265
     19        6          -0.000000433    0.000000529    0.000001114
     20        1           0.000000221    0.000000189   -0.000000113
     21        1          -0.000000069   -0.000000446    0.000000780
     22        6          -0.000000699    0.000000040    0.000000683
     23        1          -0.000000422    0.000000070    0.000000606
     24        6           0.000000318    0.000001433    0.000000964
     25        1          -0.000000196    0.000000905    0.000000331
     26        6          -0.000000823    0.000001102    0.000000251
     27        6          -0.000000071    0.000000312    0.000000567
     28        1          -0.000000230    0.000000112    0.000000084
     29        1          -0.000000166   -0.000000023   -0.000000149
     30        6           0.000000257   -0.000000928   -0.000002438
     31        1           0.000001590   -0.000000481    0.000000056
     32        6           0.000003428    0.000000509    0.000002744
     33        1           0.000001152    0.000000864    0.000000080
     34        6          -0.000000434    0.000002411   -0.000002556
     35        1           0.000000490    0.000001600    0.000001384
     36        6           0.000001456    0.000000208    0.000001317
     37        1          -0.000001189    0.000001017   -0.000000951
     38        6          -0.000001906   -0.000000231   -0.000004122
     39        6          -0.000000080   -0.000000467   -0.000000608
     40        1          -0.000000274   -0.000000101   -0.000000215
     41        1          -0.000000553   -0.000000181    0.000000132
     42        6           0.000000851   -0.000019464    0.000019609
     43        6          -0.000006037   -0.000001033    0.000000506
     44        6           0.000000841    0.000001595    0.000000822
     45        1           0.000000186    0.000001096    0.000000238
     46        6          -0.000000633    0.000001596    0.000000794
     47        1           0.000000183    0.000001159    0.000000450
 -------------------------------------------------------------------
 Cartesian Forces:  Max     0.000057317 RMS     0.000008462
 Leave Link  716 at Thu Dec 22 20:10:35 2022, MaxMem=  1610612736 cpu:               0.2 elap:               0.0
 (Enter /aplic/Gaussian/g16b01_iqtc09/g16/l9999.exe)

 Test job not archived.
 1\1\GINC-G2NODER6\FOpt\UB3LYP\def2SVP\C20H18Fe1N6S2\ROOT\22-Dec-2022\0
 \\#p nosymm scf=(maxconventionalcycles=200,xqc) UB3LYP IOp(3/76=100000
 1500) IOp(3/77=0720008500) IOp(3/78=0810010000) def2SVP opt=(RecalcFC=
 30,cartesian,skipdihedral) EmpiricalDispersion=GD3BJ\\Title Card\\0,1\
 Fe,4.1717776506,7.7811390891,4.1589686424\S,8.4944062784,6.2913709685,
 3.9633307839\S,2.5592824827,10.8046749976,1.02432744\N,2.24670894,7.61
 25338741,4.5892984136\N,3.8489410102,6.4044566329,2.7944657382\N,4.646
 0480103,8.8210020944,5.7504165555\N,4.4110679394,6.2021686924,5.436917
 4976\N,3.8531017637,9.2900342469,3.0067271287\N,6.0654878175,7.6832202
 314,3.7227331503\C,3.3395663898,6.5883440143,1.5654271643\H,3.12193621
 24,7.6213313753,1.2797376781\C,3.1073401355,5.5194159536,0.6996100264\
 H,2.6990564803,5.7121412454,-0.295821064\C,3.402121932,4.2232039628,1.
 1285623015\H,3.2271610618,3.3639660855,0.4742323264\C,3.9260882671,4.0
 400473352,2.411251194\H,4.1731252723,3.041811232,2.7837602741\C,4.1476
 150555,5.1558219289,3.2195669834\C,4.8040013454,5.0614349678,4.5766251
 195\H,5.8984732517,5.1027176193,4.4315188923\H,4.5724045597,4.09279121
 8,5.0582374695\C,1.2359574485,8.2619914332,3.976225714\H,1.5138562318,
 9.0792808966,3.307420303\C,0.6418640735,6.1485192597,5.6235580127\H,0.
 4518274689,5.2971405857,6.2837637735\C,1.9510470175,6.5781257152,5.408
 2411606\C,3.1237283033,5.9862407965,6.141115553\H,2.9626718673,4.91413
 17569,6.3552390882\H,3.1856619509,6.4954752666,7.1184026151\C,4.473842
 2453,10.1416129072,5.9134790091\H,3.9911090999,10.6567877857,5.0779775
 198\C,4.9090781929,10.8040881358,7.0614084726\H,4.7581663721,11.882782
 2025,7.1543548367\C,5.5362689991,10.067817972,8.0695592314\H,5.8883201
 995,10.5571719049,8.9825819755\C,5.7098679288,8.691295539,7.8934294151
 \H,6.1983672575,8.0808107522,8.6582709755\C,5.2613863334,8.096210424,6
 .7144604283\C,5.4562382755,6.6307272119,6.4006403734\H,5.4303463098,6.
 0217725163,7.324459899\H,6.4480231906,6.4834479336,5.9418365266\C,3.34
 46877149,9.9533316161,2.1645187324\C,7.1161064271,7.1407626008,3.77415
 57498\C,-0.0984117669,7.9006475069,4.1604629063\H,-0.8781303553,8.4615
 690298,3.6386761552\C,-0.4072269769,6.8215105168,4.991233256\H,-1.4434
 636654,6.5047609684,5.1416956012\\Version=ES64L-G16RevB.01\HF=-3159.61
 88939\S2=0.\S2-1=0.\S2A=0.\RMSD=3.508e-09\RMSF=8.462e-06\Dipole=-3.034
 2804,-2.8039669,3.5406178\Polar=0.,0.,0.,0.,0.,0.\Quadrupole=-35.81331
 14,-52.3948661,88.2081775,-52.6753724,6.8870753,46.169329\PG=C01 [X(C2
 0H18Fe1N6S2)]\\@


 THAT'S WHAT MAKES US A GREAT COUNTRY.
 THE LITTLE THINGS ARE SERIOUS AND THE BIG ONES ARE NOT.
           WILL ROGERS
 Job cpu time:       0 days 17 hours 57 minutes 13.6 seconds.
 Elapsed time:       0 days  2 hours 23 minutes 11.7 seconds.
 File lengths (MBytes):  RWF=   2976 Int=      0 D2E=      0 Chk=     32 Scr=      1
 Normal termination of Gaussian 16 at Thu Dec 22 20:10:35 2022.
