 Entering Gaussian System, Link 0=g16
 Initial command:
 /prod/precompiled/gaussian/16c2/g16/l1.exe "/scratch/ucsscms/svela/2076362/Gau-958924.inp" -scrdir="/scratch/ucsscms/svela/2076362/"
 Entering Link 1 = /prod/precompiled/gaussian/16c2/g16/l1.exe PID=    958928.
  
 Copyright (c) 1988-2021, Gaussian, Inc.  All Rights Reserved.
  
 This is part of the Gaussian(R) 16 program.  It is based on
 the Gaussian(R) 09 system (copyright 2009, Gaussian, Inc.),
 the Gaussian(R) 03 system (copyright 2003, Gaussian, Inc.),
 the Gaussian(R) 98 system (copyright 1998, Gaussian, Inc.),
 the Gaussian(R) 94 system (copyright 1995, Gaussian, Inc.),
 the Gaussian 92(TM) system (copyright 1992, Gaussian, Inc.),
 the Gaussian 90(TM) system (copyright 1990, Gaussian, Inc.),
 the Gaussian 88(TM) system (copyright 1988, Gaussian, Inc.),
 the Gaussian 86(TM) system (copyright 1986, Carnegie Mellon
 University), and the Gaussian 82(TM) system (copyright 1983,
 Carnegie Mellon University). Gaussian is a federally registered
 trademark of Gaussian, Inc.
  
 This software contains proprietary and confidential information,
 including trade secrets, belonging to Gaussian, Inc.
  
 This software is provided under written license and may be
 used, copied, transmitted, or stored only in accord with that
 written license.
  
 The following legend is applicable only to US Government
 contracts under FAR:
  
                    RESTRICTED RIGHTS LEGEND
  
 Use, reproduction and disclosure by the US Government is
 subject to restrictions as set forth in subparagraphs (a)
 and (c) of the Commercial Computer Software - Restricted
 Rights clause in FAR 52.227-19.
  
 Gaussian, Inc.
 340 Quinnipiac St., Bldg. 40, Wallingford CT 06492
  
  
 ---------------------------------------------------------------
 Warning -- This program may not be used in any manner that
 competes with the business of Gaussian, Inc. or will provide
 assistance to any competitor of Gaussian, Inc.  The licensee
 of this program is prohibited from giving any competitor of
 Gaussian, Inc. access to this program.  By using this program,
 the user acknowledges that Gaussian, Inc. is engaged in the
 business of creating and licensing software in the field of
 computational chemistry and represents and warrants to the
 licensee that it is not a competitor of Gaussian, Inc. and that
 it will not use this program in any manner prohibited above.
 ---------------------------------------------------------------
  

 Cite this work as:
 Gaussian 16, Revision C.02,
 M. J. Frisch, G. W. Trucks, H. B. Schlegel, G. E. Scuseria, 
 M. A. Robb, J. R. Cheeseman, G. Scalmani, V. Barone, 
 G. A. Petersson, H. Nakatsuji, X. Li, M. Caricato, A. V. Marenich, 
 J. Bloino, B. G. Janesko, R. Gomperts, B. Mennucci, H. P. Hratchian, 
 J. V. Ortiz, A. F. Izmaylov, J. L. Sonnenberg, D. Williams-Young, 
 F. Ding, F. Lipparini, F. Egidi, J. Goings, B. Peng, A. Petrone, 
 T. Henderson, D. Ranasinghe, V. G. Zakrzewski, J. Gao, N. Rega, 
 G. Zheng, W. Liang, M. Hada, M. Ehara, K. Toyota, R. Fukuda, 
 J. Hasegawa, M. Ishida, T. Nakajima, Y. Honda, O. Kitao, H. Nakai, 
 T. Vreven, K. Throssell, J. A. Montgomery, Jr., J. E. Peralta, 
 F. Ogliaro, M. J. Bearpark, J. J. Heyd, E. N. Brothers, K. N. Kudin, 
 V. N. Staroverov, T. A. Keith, R. Kobayashi, J. Normand, 
 K. Raghavachari, A. P. Rendell, J. C. Burant, S. S. Iyengar, 
 J. Tomasi, M. Cossi, J. M. Millam, M. Klene, C. Adamo, R. Cammi, 
 J. W. Ochterski, R. L. Martin, K. Morokuma, O. Farkas, 
 J. B. Foresman, and D. J. Fox, Gaussian, Inc., Wallingford CT, 2019.
 
 ******************************************
 Gaussian 16:  ES64L-G16RevC.02  7-Dec-2021
                 6-Mar-2026 
 ******************************************
 %nprocs=12
 Will use up to   12 processors via shared memory.
 %mem=18gb
 %chk=test_tsrot_a_s_ts_r1.chk
 ----------------------------------------------------------------------
 #p nosymm scf=(maxconventionalcycles=200,xqc) wB97XD def2SVP opt=(TS,N
 oEigenTest,RecalcFC=30,Cartesian,SkipDihedral,MaxCycles=300)
 ----------------------------------------------------------------------
 1/5=1,6=300,10=7,11=1,18=10,26=3,38=1,71=30,156=2/1,3;
 2/12=2,15=1,17=6,18=5,29=2,40=1/2;
 3/5=43,7=101,11=2,25=1,30=1,71=2,74=-58,140=1/1,2,3;
 4//1;
 5/5=2,8=3,13=1,38=5,85=200/2,8;
 8/6=4,10=90,11=11/1;
 11/6=1,8=1,9=11,15=111,16=1,31=1/1,2,10;
 10/6=1,31=1/2;
 6/7=2,8=2,9=2,10=2,28=1/1;
 7/7=1,10=1,25=1,30=1/1,2,3,16;
 1/5=1,6=300,10=7,11=1,18=10,26=3,71=30,156=2/3(3);
 2/15=1,29=1/2;
 7/7=1,9=1,25=1,30=1,44=-1/16;
 99/12=1/99;
 2/15=1,29=1/2;
 3/5=43,7=101,11=2,25=1,30=1,71=2,74=-58,140=1/1,2,3;
 4/5=5,16=3,69=1/1;
 5/5=2,8=3,13=1,38=5,85=200/2,8;
 8/6=4,10=90,11=11/1;
 11/6=1,8=1,9=11,15=111,16=1,31=1/1,2,10;
 10/6=1,31=1/2;
 7/7=1,10=1,25=1,30=1/1,2,3,16;
 1/5=1,6=300,11=1,18=10,26=3,71=30,156=2/3(-8);
 2/15=1,29=1/2;
 6/7=2,8=2,9=2,10=2,19=2,28=1/1;
 7/7=1,9=1,25=1,30=1,44=-1/16;
 99/9=1,12=1/99;
 Leave Link    1 at Fri Mar  6 16:25:19 2026, MaxMem=  2415919104 cpu:               0.1 elap:               0.1
 (Enter /prod/precompiled/gaussian/16c2/g16/l101.exe)
 ----------
 Title Card
 ----------
 Symbolic Z-matrix:
 Charge =  0 Multiplicity = 1
 C                    -0.16122  -1.33925  -0.42574 
 C                     0.        0.        0. 
 Cl                    0.56877   0.47818   1.56922 
 C                    -0.31367   1.07248  -0.85337 
 C                    -0.7972    0.84692  -2.13792 
 C                    -0.95654  -0.45692  -2.5861 
 C                    -0.63549  -1.5317   -1.74269 
 N                     0.08266  -2.53079   0.32197 
 N                     0.6083   -2.32978   1.43206 
 C                     2.01989  -2.32978   1.43206 
 C                     2.82053  -2.53544   0.29631 
 Cl                    2.15308  -2.90061  -1.25858 
 C                     4.21585  -2.40168   0.36999 
 C                     4.83063  -2.04976   1.57104 
 C                     4.05456  -1.8182    2.70007 
 C                     2.66142  -1.95019   2.62701 
 H                    -0.18416   2.09549  -0.50772 
 H                    -1.046     1.68889  -2.78003 
 H                    -1.33312  -0.63985  -3.59066 
 H                    -0.76263  -2.54389  -2.1244 
 H                     4.82519  -2.55401  -0.51641 
 H                     5.91285  -1.94304   1.6176 
 H                     4.52731  -1.52181   3.63435 
 H                     2.06508  -1.73158   3.51051 
 
 ITRead=  0  0  0  0  0  0  0  0  0  0  0  0  0  0  0  0  0  0  0  0
 ITRead=  0  0  0  0
 MicOpt= -1 -1 -1 -1 -1 -1 -1 -1 -1 -1 -1 -1 -1 -1 -1 -1 -1 -1 -1 -1
 MicOpt= -1 -1 -1 -1
 NAtoms=     24 NQM=       24 NQMF=       0 NMMI=      0 NMMIF=      0
                NMic=       0 NMicF=      0.
                    Isotopes and Nuclear Properties:
 (Nuclear quadrupole moments (NQMom) in fm**2, nuclear magnetic moments (NMagM)
  in nuclear magnetons)

  Atom         1           2           3           4           5           6           7           8           9          10
 IAtWgt=          12          12          35          12          12          12          12          14          14          12
 AtmWgt=  12.0000000  12.0000000  34.9688527  12.0000000  12.0000000  12.0000000  12.0000000  14.0030740  14.0030740  12.0000000
 NucSpn=           0           0           3           0           0           0           0           2           2           0
 AtZEff=  -0.0000000  -0.0000000  -0.0000000  -0.0000000  -0.0000000  -0.0000000  -0.0000000  -0.0000000  -0.0000000  -0.0000000
 NQMom=    0.0000000   0.0000000  -8.1650000   0.0000000   0.0000000   0.0000000   0.0000000   2.0440000   2.0440000   0.0000000
 NMagM=    0.0000000   0.0000000   0.8218740   0.0000000   0.0000000   0.0000000   0.0000000   0.4037610   0.4037610   0.0000000
 AtZNuc=   6.0000000   6.0000000  17.0000000   6.0000000   6.0000000   6.0000000   6.0000000   7.0000000   7.0000000   6.0000000

  Atom        11          12          13          14          15          16          17          18          19          20
 IAtWgt=          12          35          12          12          12          12           1           1           1           1
 AtmWgt=  12.0000000  34.9688527  12.0000000  12.0000000  12.0000000  12.0000000   1.0078250   1.0078250   1.0078250   1.0078250
 NucSpn=           0           3           0           0           0           0           1           1           1           1
 AtZEff=  -0.0000000  -0.0000000  -0.0000000  -0.0000000  -0.0000000  -0.0000000  -0.0000000  -0.0000000  -0.0000000  -0.0000000
 NQMom=    0.0000000  -8.1650000   0.0000000   0.0000000   0.0000000   0.0000000   0.0000000   0.0000000   0.0000000   0.0000000
 NMagM=    0.0000000   0.8218740   0.0000000   0.0000000   0.0000000   0.0000000   2.7928460   2.7928460   2.7928460   2.7928460
 AtZNuc=   6.0000000  17.0000000   6.0000000   6.0000000   6.0000000   6.0000000   1.0000000   1.0000000   1.0000000   1.0000000

  Atom        21          22          23          24
 IAtWgt=           1           1           1           1
 AtmWgt=   1.0078250   1.0078250   1.0078250   1.0078250
 NucSpn=           1           1           1           1
 AtZEff=  -0.0000000  -0.0000000  -0.0000000  -0.0000000
 NQMom=    0.0000000   0.0000000   0.0000000   0.0000000
 NMagM=    2.7928460   2.7928460   2.7928460   2.7928460
 AtZNuc=   1.0000000   1.0000000   1.0000000   1.0000000
 Leave Link  101 at Fri Mar  6 16:25:20 2026, MaxMem=  2415919104 cpu:               0.1 elap:               0.1
 (Enter /prod/precompiled/gaussian/16c2/g16/l103.exe)

 GradGradGradGradGradGradGradGradGradGradGradGradGradGradGradGradGradGrad
 Berny optimization.
 Initialization pass.
 No Z-matrix variables, so optimization will use Cartesian coordinates.
 Trust Radius=3.00D-01 FncErr=1.00D-07 GrdErr=1.00D-06 EigMax=2.50D+02 EigMin=1.00D-04
 Number of steps in this run=    144 maximum allowed number of steps=    144.
 Search for a saddle point of order  1.
 Step   0 in ReCalcFC=30 IGetFC= 4 compute analytic Hessian.
 GradGradGradGradGradGradGradGradGradGradGradGradGradGradGradGradGradGrad

 Leave Link  103 at Fri Mar  6 16:25:20 2026, MaxMem=  2415919104 cpu:               0.1 elap:               0.1
 (Enter /prod/precompiled/gaussian/16c2/g16/l202.exe)
 ---------------------------------------------------------------------------------------------------
                            Z-MATRIX (ANGSTROMS AND DEGREES)
   CD    Cent   Atom    N1       Length/X        N2       Alpha/Y        N3        Beta/Z          J
 ---------------------------------------------------------------------------------------------------
      1      1  C        0  -0.161223         -1.339254         -0.425744
      2      2  C        0   0.000000          0.000000          0.000000
      3      3  Cl       0   0.568765          0.478181          1.569221
      4      4  C        0  -0.313667          1.072479         -0.853365
      5      5  C        0  -0.797195          0.846916         -2.137920
      6      6  C        0  -0.956539         -0.456916         -2.586099
      7      7  C        0  -0.635486         -1.531700         -1.742687
      8      8  N        0   0.082663         -2.530789          0.321967
      9      9  N        0   0.608303         -2.329777          1.432063
     10     10  C        0   2.019891         -2.329777          1.432063
     11     11  C        0   2.820525         -2.535435          0.296313
     12     12  Cl       0   2.153085         -2.900613         -1.258583
     13     13  C        0   4.215853         -2.401676          0.369987
     14     14  C        0   4.830629         -2.049756          1.571041
     15     15  C        0   4.054561         -1.818203          2.700065
     16     16  C        0   2.661424         -1.950191          2.627007
     17     17  H        0  -0.184164          2.095494         -0.507717
     18     18  H        0  -1.046003          1.688893         -2.780031
     19     19  H        0  -1.333123         -0.639852         -3.590660
     20     20  H        0  -0.762626         -2.543892         -2.124395
     21     21  H        0   4.825191         -2.554007         -0.516414
     22     22  H        0   5.912852         -1.943036          1.617602
     23     23  H        0   4.527313         -1.521805          3.634351
     24     24  H        0   2.065084         -1.731581          3.510510
 ---------------------------------------------------------------------------------------------------
                         Z-Matrix orientation:                         
 ---------------------------------------------------------------------
 Center     Atomic      Atomic             Coordinates (Angstroms)
 Number     Number       Type             X           Y           Z
 ---------------------------------------------------------------------
      1          6           0       -0.161223   -1.339254   -0.425744
      2          6           0        0.000000    0.000000    0.000000
      3         17           0        0.568765    0.478181    1.569221
      4          6           0       -0.313667    1.072479   -0.853365
      5          6           0       -0.797195    0.846916   -2.137920
      6          6           0       -0.956539   -0.456916   -2.586099
      7          6           0       -0.635486   -1.531700   -1.742687
      8          7           0        0.082663   -2.530789    0.321967
      9          7           0        0.608303   -2.329777    1.432063
     10          6           0        2.019891   -2.329777    1.432063
     11          6           0        2.820525   -2.535435    0.296313
     12         17           0        2.153085   -2.900613   -1.258583
     13          6           0        4.215853   -2.401676    0.369987
     14          6           0        4.830629   -2.049756    1.571041
     15          6           0        4.054561   -1.818203    2.700065
     16          6           0        2.661424   -1.950191    2.627007
     17          1           0       -0.184164    2.095494   -0.507717
     18          1           0       -1.046003    1.688893   -2.780031
     19          1           0       -1.333123   -0.639852   -3.590660
     20          1           0       -0.762626   -2.543892   -2.124395
     21          1           0        4.825191   -2.554007   -0.516414
     22          1           0        5.912852   -1.943036    1.617602
     23          1           0        4.527313   -1.521805    3.634351
     24          1           0        2.065084   -1.731581    3.510510
 ---------------------------------------------------------------------
                    Distance matrix (angstroms):
                    1          2          3          4          5
     1  C    0.000000
     2  C    1.414515   0.000000
     3  Cl   2.795682   1.736262   0.000000
     4  C    2.454089   1.405998   2.645902   0.000000
     5  C    2.848745   2.433822   3.967960   1.390956   0.000000
     6  C    2.465397   2.794932   4.524118   2.398896   1.387888
     7  C    1.412905   2.405599   4.056917   2.770597   2.416645
     8  N    1.427693   2.552526   3.293302   3.810777   4.270139
     9  N    2.241596   2.801553   2.811584   4.201018   4.981123
    10  C    3.031475   3.399798   3.163733   4.716357   5.547263
    11  C    3.292877   3.804155   3.971473   4.915482   5.518486
    12  Cl   2.913329   3.825358   4.682178   4.694095   4.849882
    13  C    4.573918   4.866041   4.799270   5.838056   6.478703
    14  C    5.423149   5.477650   4.955195   6.487671   7.336178
    15  C    5.270001   5.199584   4.324692   6.329638   7.351768
    16  C    4.202365   4.217533   3.375666   5.486410   6.518465
    17  H    3.435803   2.163975   2.737933   1.087568   2.142969
    18  H    3.936391   3.416878   4.794715   2.151354   1.087721
    19  H    3.446622   3.883229   5.611733   3.385875   2.146661
    20  H    2.167546   3.400888   4.954627   3.859433   3.391011
    21  H    5.133047   5.483804   5.626829   6.298635   6.768071
    22  H    6.436940   6.430695   5.867188   7.346329   8.180007
    23  H    6.204842   6.001746   4.892321   7.092601   8.202459
    24  H    4.539213   4.425678   3.300094   5.706541   6.837108
                    6          7          8          9         10
     6  C    0.000000
     7  C    1.403417   0.000000
     8  N    3.719911   2.403479   0.000000
     9  N    4.701273   3.501853   1.244595   0.000000
    10  C    5.339698   4.215091   2.241779   1.411588   0.000000
    11  C    5.186015   4.136305   2.737986   2.495225   1.404720
    12  Cl   4.171776   3.143948   2.630885   3.154644   2.753756
    13  C    6.266911   5.362438   4.135485   3.761328   2.440374
    14  C    7.301388   6.413079   4.933027   4.233883   2.828069
    15  C    7.409977   6.466581   4.683920   3.707591   2.451412
    16  C    6.518896   5.489898   3.507180   2.405677   1.408383
    17  H    3.380981   3.858157   4.707660   4.896302   5.310709
    18  H    2.156411   3.408347   5.357424   6.052121   6.579601
    19  H    1.088312   2.167278   4.570420   5.643822   6.271068
    20  H    2.146216   1.089219   2.588315   3.817550   4.520690
    21  H    6.489206   5.689275   4.816118   4.650697   3.422945
    22  H    8.189517   7.371667   6.001269   5.321864   3.916521
    23  H    8.360659   7.454336   5.634257   4.567442   3.433665
    24  H    6.922689   5.910085   3.838689   2.607679   2.163290
                   11         12         13         14         15
    11  C    0.000000
    12  Cl   1.731050   0.000000
    13  C    1.403659   2.675106   0.000000
    14  C    2.429266   3.987477   1.394392   0.000000
    15  C    2.795584   4.523065   2.407430   1.389458   0.000000
    16  C    2.408310   4.032310   2.777450   2.414628   1.401281
    17  H    5.578541   5.566652   6.352563   6.830262   6.601036
    18  H    6.500683   5.797632   7.371736   8.212437   8.267220
    19  H    5.996214   4.764795   7.041440   8.162281   8.365935
    20  H    4.324219   3.062393   5.570226   6.721973   6.856189
    21  H    2.163228   2.794835   1.086372   2.147503   3.388365
    22  H    3.414561   4.829621   2.155620   1.088469   2.154195
    23  H    3.883693   5.610604   3.395181   2.151274   1.088226
    24  H    3.398225   4.911072   3.864935   3.392789   2.149964
                   16         17         18         19         20
    16  C    0.000000
    17  H    5.855889   0.000000
    18  H    7.498267   2.464042   0.000000
    19  H    7.505516   4.278640   2.482461   0.000000
    20  H    5.886631   4.946935   4.292625   2.469973   0.000000
    21  H    3.863622   6.834587   7.589274   7.144215   5.814585
    22  H    3.404517   7.615793   8.997541   9.018228   7.676300
    23  H    2.163284   7.241519   9.083762   9.344696   7.886144
    24  H    1.088113   5.987635   7.807010   7.947723   6.356725
                   21         22         23         24
    21  H    0.000000
    22  H    2.471905   0.000000
    23  H    4.287543   2.482827   0.000000
    24  H    4.950827   4.293382   2.474250   0.000000
 Symmetry turned off by external request.
 Stoichiometry    C12H8Cl2N2
 Framework group  C1[X(C12H8Cl2N2)]
 Deg. of freedom    66
 Full point group                 C1      NOp   1
 Rotational constants (GHZ):           0.7515102           0.3704659           0.2967639
 Leave Link  202 at Fri Mar  6 16:25:20 2026, MaxMem=  2415919104 cpu:               0.3 elap:               0.4
 (Enter /prod/precompiled/gaussian/16c2/g16/l301.exe)
 Standard basis: def2SVP (5D, 7F)
 Ernie: Thresh=  0.10000D-02 Tol=  0.10000D-05 Strict=F.
   272 basis functions,   480 primitive gaussians,   288 cartesian basis functions
    64 alpha electrons       64 beta electrons
       nuclear repulsion energy      1276.9967495054 Hartrees.
 IExCor= 4639 DFT=T Ex+Corr=wB97XD ExCW=0 ScaHFX=  1.000000
 ScaDFX=  1.000000  1.000000  1.000000  1.000000 ScalE2=  1.000000  1.000000
 IRadAn=      5 IRanWt=     -1 IRanGd=            0 ICorTp=0 IEmpDi=121
 HFx  wShort=  0.000000 wLong=  0.200000 cFull=  0.222036 cShort=  0.000000 cLong=  0.777964
 DFx  wShort=  0.000000 wLong=  0.200000 cFull=  0.000000 cShort=  0.000000 cLong=  1.000000
 NAtoms=   24 NActive=   24 NUniq=   24 SFac= 1.00D+00 NAtFMM=   60 NAOKFM=F Big=F
 Integral buffers will be    131072 words long.
 Raffenetti 2 integral format.
 Two-electron integral symmetry is turned off.
 R6Disp:  Grimme-D2 Dispersion energy=       -0.0158564095 Hartrees.
 Nuclear repulsion after empirical dispersion term =     1276.9808930959 Hartrees.
 Leave Link  301 at Fri Mar  6 16:25:20 2026, MaxMem=  2415919104 cpu:               0.1 elap:               0.0
 (Enter /prod/precompiled/gaussian/16c2/g16/l302.exe)
 NPDir=0 NMtPBC=     1 NCelOv=     1 NCel=       1 NClECP=     1 NCelD=      1
         NCelK=      1 NCelE2=     1 NClLst=     1 CellRange=     0.0.
 One-electron integrals computed using PRISM.
   1 Symmetry operations used in ECPInt.
 ECPInt:  NShTT=    7750 NPrTT=   30142 LenC2=    7315 LenP2D=   20050.
 LDataN:  DoStor=T MaxTD1= 4 Len=   56
 NBasis=   272 RedAO= T EigKep=  2.28D-04  NBF=   272
 NBsUse=   272 1.00D-06 EigRej= -1.00D+00 NBFU=   272
 Precomputing XC quadrature grid using
 IXCGrd= 4 IRadAn=           5 IRanWt=          -1 IRanGd=           0 AccXCQ= 0.00D+00.
 Generated NRdTot=       0 NPtTot=           0 NUsed=           0 NTot=          32
 NSgBfM=   286   286   286   286   286 MxSgAt=    24 MxSgA2=    24.
 Leave Link  302 at Fri Mar  6 16:25:20 2026, MaxMem=  2415919104 cpu:               1.6 elap:               0.3
 (Enter /prod/precompiled/gaussian/16c2/g16/l303.exe)
 DipDrv:  MaxL=1.
 Leave Link  303 at Fri Mar  6 16:25:20 2026, MaxMem=  2415919104 cpu:               0.2 elap:               0.1
 (Enter /prod/precompiled/gaussian/16c2/g16/l401.exe)
 ExpMin= 1.22D-01 ExpMax= 1.04D+04 ExpMxC= 1.57D+03 IAcc=3 IRadAn=         5 AccDes= 0.00D+00
 Harris functional with IExCor= 4639 and IRadAn=       5 diagonalized for initial guess.
 HarFok:  IExCor= 4639 AccDes= 0.00D+00 IRadAn=         5 IDoV= 1 UseB2=F ITyADJ=14
 ICtDFT=  3500011 ScaDFX=  1.000000  1.000000  1.000000  1.000000
 FoFCou: FMM=F IPFlag=           0 FMFlag=      100000 FMFlg1=           0
         NFxFlg=           0 DoJE=T BraDBF=F KetDBF=T FulRan=T
         wScrn=  0.000000 ICntrl=       500 IOpCl=  0 I1Cent=   200000004 NGrid=           0
         NMat0=    1 NMatS0=      1 NMatT0=    0 NMatD0=    1 NMtDS0=    0 NMtDT0=    0
 Symmetry not used in FoFCou.
 Harris En= -1450.75028931937    
 JPrj=0 DoOrth=F DoCkMO=F.
 Leave Link  401 at Fri Mar  6 16:25:21 2026, MaxMem=  2415919104 cpu:               5.3 elap:               0.7
 (Enter /prod/precompiled/gaussian/16c2/g16/l502.exe)
 Two-electron integral symmetry not used.
 Closed shell SCF:
 Using DIIS extrapolation, IDIIS=  1040.
 NGot=  2415919104 LenX=  2415746906 LenY=  2415663521
 Requested convergence on RMS density matrix=1.00D-08 within 200 cycles.
 Requested convergence on MAX density matrix=1.00D-06.
 Requested convergence on             energy=1.00D-06.
 No special actions if energy rises.
 Fock matrices will be formed incrementally for  20 cycles.
 Integral accuracy reduced to 1.0D-05 until final iterations.

 Cycle   1  Pass 0  IDiag  1:
 FoFJK:  IHMeth= 1 ICntrl=       0 DoSepK=T KAlg= 0 I1Cent=           0 FoldK=F
 IRaf=         1 NMat=       1 IRICut=       1 DoRegI=T DoRafI=F ISym2E= 0 IDoP0=0 IntGTp=1.
 FoFCou: FMM=F IPFlag=           0 FMFlag=      100000 FMFlg1=           0
         NFxFlg=           0 DoJE=T BraDBF=F KetDBF=F FulRan=T
         wScrn=  0.000000 ICntrl=       500 IOpCl=  0 I1Cent=           0 NGrid=           0
         NMat0=    1 NMatS0=      1 NMatT0=    0 NMatD0=    1 NMtDS0=    0 NMtDT0=    0
 Symmetry not used in FoFCou.
 E= -1490.38642562452    
 DIIS: error= 3.43D-02 at cycle   1 NSaved=   1.
 NSaved= 1 IEnMin= 1 EnMin= -1490.38642562452     IErMin= 1 ErrMin= 3.43D-02
 ErrMax= 3.43D-02  0.00D+00 EMaxC= 1.00D-01 BMatC= 8.20D-01 BMatP= 8.20D-01
 IDIUse=3 WtCom= 6.57D-01 WtEn= 3.43D-01
 Coeff-Com:  0.100D+01
 Coeff-En:   0.100D+01
 Coeff:      0.100D+01
 Gap=     0.168 Goal=   None    Shift=    0.000
 GapD=    0.168 DampG=1.000 DampE=0.500 DampFc=0.5000 IDamp=-1.
 Damping current iteration by 5.00D-01
 RMSDP=7.72D-03 MaxDP=3.08D-01              OVMax= 4.96D-01

 Cycle   2  Pass 0  IDiag  1:
 RMSU=  3.81D-03    CP:  9.75D-01
 E= -1490.55216443993     Delta-E=       -0.165738815408 Rises=F Damp=T
 DIIS: error= 1.45D-02 at cycle   2 NSaved=   2.
 NSaved= 2 IEnMin= 2 EnMin= -1490.55216443993     IErMin= 2 ErrMin= 1.45D-02
 ErrMax= 1.45D-02  0.00D+00 EMaxC= 1.00D-01 BMatC= 1.29D-01 BMatP= 8.20D-01
 IDIUse=3 WtCom= 8.55D-01 WtEn= 1.45D-01
 Coeff-Com: -0.185D-01 0.102D+01
 Coeff-En:   0.260D+00 0.740D+00
 Coeff:      0.220D-01 0.978D+00
 Gap=     0.156 Goal=   None    Shift=    0.000
 RMSDP=3.25D-03 MaxDP=9.02D-02 DE=-1.66D-01 OVMax= 3.73D-01

 Cycle   3  Pass 0  IDiag  1:
 RMSU=  3.23D-03    CP:  9.66D-01  9.16D-01
 E= -1490.76077928089     Delta-E=       -0.208614840961 Rises=F Damp=F
 DIIS: error= 2.59D-02 at cycle   3 NSaved=   3.
 NSaved= 3 IEnMin= 3 EnMin= -1490.76077928089     IErMin= 2 ErrMin= 1.45D-02
 ErrMax= 2.59D-02  0.00D+00 EMaxC= 1.00D-01 BMatC= 1.53D-01 BMatP= 1.29D-01
 IDIUse=2 WtCom= 0.00D+00 WtEn= 1.00D+00
 Coeff-En:   0.000D+00 0.984D-01 0.902D+00
 Coeff:      0.000D+00 0.984D-01 0.902D+00
 Gap=     0.212 Goal=   None    Shift=    0.000
 RMSDP=4.61D-03 MaxDP=1.68D-01 DE=-2.09D-01 OVMax= 4.50D-01

 Cycle   4  Pass 0  IDiag  1:
 RMSU=  2.24D-03    CP:  9.46D-01  1.52D+00 -1.56D-02
 E= -1490.49274896386     Delta-E=        0.268030317032 Rises=F Damp=F
 DIIS: error= 2.55D-02 at cycle   4 NSaved=   4.
 NSaved= 4 IEnMin= 3 EnMin= -1490.76077928089     IErMin= 2 ErrMin= 1.45D-02
 ErrMax= 2.55D-02  0.00D+00 EMaxC= 1.00D-01 BMatC= 4.11D-01 BMatP= 1.29D-01
 IDIUse=2 WtCom= 0.00D+00 WtEn= 1.00D+00
 Coeff-En:   0.000D+00 0.000D+00 0.687D+00 0.313D+00
 Coeff:      0.000D+00 0.000D+00 0.687D+00 0.313D+00
 Gap=     0.154 Goal=   None    Shift=    0.000
 RMSDP=2.29D-03 MaxDP=9.54D-02 DE= 2.68D-01 OVMax= 2.47D-01

 Cycle   5  Pass 0  IDiag  1:
 RMSU=  7.61D-04    CP:  9.52D-01  1.20D+00  4.98D-01  6.91D-01
 E= -1490.92400557143     Delta-E=       -0.431256607568 Rises=F Damp=F
 DIIS: error= 3.78D-03 at cycle   5 NSaved=   5.
 NSaved= 5 IEnMin= 5 EnMin= -1490.92400557143     IErMin= 5 ErrMin= 3.78D-03
 ErrMax= 3.78D-03  0.00D+00 EMaxC= 1.00D-01 BMatC= 1.12D-02 BMatP= 1.29D-01
 IDIUse=3 WtCom= 9.62D-01 WtEn= 3.78D-02
 Coeff-Com: -0.164D-01 0.266D-01 0.117D+00-0.106D+00 0.978D+00
 Coeff-En:   0.000D+00 0.000D+00 0.000D+00 0.000D+00 0.100D+01
 Coeff:     -0.157D-01 0.256D-01 0.113D+00-0.102D+00 0.979D+00
 Gap=     0.179 Goal=   None    Shift=    0.000
 RMSDP=5.67D-04 MaxDP=1.29D-02 DE=-4.31D-01 OVMax= 4.08D-02

 Cycle   6  Pass 0  IDiag  1:
 RMSU=  3.22D-04    CP:  9.53D-01  1.17D+00  6.15D-01  6.11D-01  1.19D+00
 E= -1490.93793767460     Delta-E=       -0.013932103173 Rises=F Damp=F
 DIIS: error= 8.66D-04 at cycle   6 NSaved=   6.
 NSaved= 6 IEnMin= 6 EnMin= -1490.93793767460     IErMin= 6 ErrMin= 8.66D-04
 ErrMax= 8.66D-04  0.00D+00 EMaxC= 1.00D-01 BMatC= 5.87D-04 BMatP= 1.12D-02
 IDIUse=3 WtCom= 9.91D-01 WtEn= 8.66D-03
 Coeff-Com: -0.116D-01 0.229D-01 0.259D-01-0.743D-01 0.448D+00 0.589D+00
 Coeff-En:   0.000D+00 0.000D+00 0.000D+00 0.000D+00 0.000D+00 0.100D+01
 Coeff:     -0.115D-01 0.227D-01 0.257D-01-0.736D-01 0.444D+00 0.593D+00
 Gap=     0.179 Goal=   None    Shift=    0.000
 RMSDP=1.58D-04 MaxDP=4.78D-03 DE=-1.39D-02 OVMax= 1.65D-02

 Cycle   7  Pass 0  IDiag  1:
 RMSU=  1.39D-04    CP:  9.52D-01  1.17D+00  6.14D-01  6.19D-01  1.28D+00
                    CP:  9.42D-01
 E= -1490.93889347172     Delta-E=       -0.000955797121 Rises=F Damp=F
 DIIS: error= 6.22D-04 at cycle   7 NSaved=   7.
 NSaved= 7 IEnMin= 7 EnMin= -1490.93889347172     IErMin= 7 ErrMin= 6.22D-04
 ErrMax= 6.22D-04  0.00D+00 EMaxC= 1.00D-01 BMatC= 1.13D-04 BMatP= 5.87D-04
 IDIUse=3 WtCom= 9.94D-01 WtEn= 6.22D-03
 Coeff-Com:  0.173D-03 0.109D-02-0.220D-01-0.850D-02-0.759D-01 0.228D+00
 Coeff-Com:  0.877D+00
 Coeff-En:   0.000D+00 0.000D+00 0.000D+00 0.000D+00 0.000D+00 0.000D+00
 Coeff-En:   0.100D+01
 Coeff:      0.172D-03 0.108D-02-0.218D-01-0.845D-02-0.754D-01 0.227D+00
 Coeff:      0.878D+00
 Gap=     0.181 Goal=   None    Shift=    0.000
 RMSDP=1.20D-04 MaxDP=3.57D-03 DE=-9.56D-04 OVMax= 1.18D-02

 Cycle   8  Pass 0  IDiag  1:
 RMSU=  6.40D-05    CP:  9.52D-01  1.17D+00  6.21D-01  6.24D-01  1.35D+00
                    CP:  1.18D+00  1.22D+00
 E= -1490.93930548336     Delta-E=       -0.000412011637 Rises=F Damp=F
 DIIS: error= 2.64D-04 at cycle   8 NSaved=   8.
 NSaved= 8 IEnMin= 8 EnMin= -1490.93930548336     IErMin= 8 ErrMin= 2.64D-04
 ErrMax= 2.64D-04  0.00D+00 EMaxC= 1.00D-01 BMatC= 2.43D-05 BMatP= 1.13D-04
 IDIUse=3 WtCom= 9.97D-01 WtEn= 2.64D-03
 Coeff-Com:  0.206D-02-0.399D-02-0.190D-01 0.706D-02-0.117D+00 0.163D-02
 Coeff-Com:  0.413D+00 0.716D+00
 Coeff-En:   0.000D+00 0.000D+00 0.000D+00 0.000D+00 0.000D+00 0.000D+00
 Coeff-En:   0.000D+00 0.100D+01
 Coeff:      0.206D-02-0.398D-02-0.190D-01 0.704D-02-0.117D+00 0.163D-02
 Coeff:      0.412D+00 0.717D+00
 Gap=     0.182 Goal=   None    Shift=    0.000
 RMSDP=5.72D-05 MaxDP=1.89D-03 DE=-4.12D-04 OVMax= 6.81D-03

 Cycle   9  Pass 0  IDiag  1:
 RMSU=  2.60D-05    CP:  9.52D-01  1.17D+00  6.21D-01  6.29D-01  1.38D+00
                    CP:  1.28D+00  1.43D+00  1.09D+00
 E= -1490.93939226055     Delta-E=       -0.000086777189 Rises=F Damp=F
 DIIS: error= 1.12D-04 at cycle   9 NSaved=   9.
 NSaved= 9 IEnMin= 9 EnMin= -1490.93939226055     IErMin= 9 ErrMin= 1.12D-04
 ErrMax= 1.12D-04  0.00D+00 EMaxC= 1.00D-01 BMatC= 4.49D-06 BMatP= 2.43D-05
 IDIUse=3 WtCom= 9.99D-01 WtEn= 1.12D-03
 Coeff-Com:  0.121D-03-0.307D-03-0.317D-02 0.371D-02-0.215D-01-0.469D-01
 Coeff-Com: -0.709D-01 0.221D+00 0.918D+00
 Coeff-En:   0.000D+00 0.000D+00 0.000D+00 0.000D+00 0.000D+00 0.000D+00
 Coeff-En:   0.000D+00 0.000D+00 0.100D+01
 Coeff:      0.120D-03-0.306D-03-0.317D-02 0.371D-02-0.215D-01-0.469D-01
 Coeff:     -0.708D-01 0.221D+00 0.918D+00
 Gap=     0.182 Goal=   None    Shift=    0.000
 RMSDP=3.28D-05 MaxDP=1.04D-03 DE=-8.68D-05 OVMax= 3.85D-03

 Cycle  10  Pass 0  IDiag  1:
 RMSU=  1.43D-05    CP:  9.52D-01  1.17D+00  6.19D-01  6.31D-01  1.40D+00
                    CP:  1.32D+00  1.53D+00  1.32D+00  1.24D+00
 E= -1490.93941208899     Delta-E=       -0.000019828446 Rises=F Damp=F
 DIIS: error= 4.51D-05 at cycle  10 NSaved=  10.
 NSaved=10 IEnMin=10 EnMin= -1490.93941208899     IErMin=10 ErrMin= 4.51D-05
 ErrMax= 4.51D-05  0.00D+00 EMaxC= 1.00D-01 BMatC= 1.05D-06 BMatP= 4.49D-06
 IDIUse=1 WtCom= 1.00D+00 WtEn= 0.00D+00
 Coeff-Com: -0.658D-03 0.155D-02 0.196D-02-0.194D-03 0.129D-01-0.154D-01
 Coeff-Com: -0.830D-01-0.574D-01 0.332D+00 0.808D+00
 Coeff:     -0.658D-03 0.155D-02 0.196D-02-0.194D-03 0.129D-01-0.154D-01
 Coeff:     -0.830D-01-0.574D-01 0.332D+00 0.808D+00
 Gap=     0.182 Goal=   None    Shift=    0.000
 RMSDP=1.28D-05 MaxDP=3.61D-04 DE=-1.98D-05 OVMax= 1.55D-03

 Cycle  11  Pass 0  IDiag  1:
 RMSU=  7.36D-06    CP:  9.52D-01  1.17D+00  6.18D-01  6.32D-01  1.40D+00
                    CP:  1.33D+00  1.54D+00  1.40D+00  1.50D+00  1.20D+00
 E= -1490.93941584714     Delta-E=       -0.000003758142 Rises=F Damp=F
 DIIS: error= 3.69D-05 at cycle  11 NSaved=  11.
 NSaved=11 IEnMin=11 EnMin= -1490.93941584714     IErMin=11 ErrMin= 3.69D-05
 ErrMax= 3.69D-05  0.00D+00 EMaxC= 1.00D-01 BMatC= 2.57D-07 BMatP= 1.05D-06
 IDIUse=1 WtCom= 1.00D+00 WtEn= 0.00D+00
 Coeff-Com: -0.311D-03 0.737D-03 0.122D-02-0.638D-03 0.738D-02-0.159D-02
 Coeff-Com: -0.527D-02-0.620D-01-0.386D-01 0.253D+00 0.846D+00
 Coeff:     -0.311D-03 0.737D-03 0.122D-02-0.638D-03 0.738D-02-0.159D-02
 Coeff:     -0.527D-02-0.620D-01-0.386D-01 0.253D+00 0.846D+00
 Gap=     0.182 Goal=   None    Shift=    0.000
 RMSDP=8.24D-06 MaxDP=2.77D-04 DE=-3.76D-06 OVMax= 1.34D-03

 Initial convergence to 1.0D-05 achieved.  Increase integral accuracy.
 Cycle  12  Pass 1  IDiag  1:
 E= -1490.93943120470     Delta-E=       -0.000015357567 Rises=F Damp=F
 DIIS: error= 4.05D-05 at cycle   1 NSaved=   1.
 NSaved= 1 IEnMin= 1 EnMin= -1490.93943120470     IErMin= 1 ErrMin= 4.05D-05
 ErrMax= 4.05D-05  0.00D+00 EMaxC= 1.00D-01 BMatC= 8.25D-07 BMatP= 8.25D-07
 IDIUse=1 WtCom= 1.00D+00 WtEn= 0.00D+00
 Coeff-Com:  0.100D+01
 Coeff:      0.100D+01
 Gap=     0.183 Goal=   None    Shift=    0.000
 RMSDP=8.24D-06 MaxDP=2.77D-04 DE=-1.54D-05 OVMax= 1.16D-03

 Cycle  13  Pass 1  IDiag  1:
 RMSU=  5.28D-05    CP:  1.00D+00
 E= -1490.93943313530     Delta-E=       -0.000001930592 Rises=F Damp=F
 DIIS: error= 2.87D-05 at cycle   2 NSaved=   2.
 NSaved= 2 IEnMin= 2 EnMin= -1490.93943313530     IErMin= 2 ErrMin= 2.87D-05
 ErrMax= 2.87D-05  0.00D+00 EMaxC= 1.00D-01 BMatC= 1.24D-07 BMatP= 8.25D-07
 IDIUse=1 WtCom= 1.00D+00 WtEn= 0.00D+00
 Coeff-Com:  0.716D-01 0.928D+00
 Coeff:      0.716D-01 0.928D+00
 Gap=     0.183 Goal=   None    Shift=    0.000
 RMSDP=7.27D-06 MaxDP=3.23D-04 DE=-1.93D-06 OVMax= 1.16D-03

 Cycle  14  Pass 1  IDiag  1:
 RMSU=  6.29D-06    CP:  1.00D+00  1.07D+00
 E= -1490.93943411660     Delta-E=       -0.000000981305 Rises=F Damp=F
 DIIS: error= 2.70D-05 at cycle   3 NSaved=   3.
 NSaved= 3 IEnMin= 3 EnMin= -1490.93943411660     IErMin= 3 ErrMin= 2.70D-05
 ErrMax= 2.70D-05  0.00D+00 EMaxC= 1.00D-01 BMatC= 2.36D-07 BMatP= 1.24D-07
 IDIUse=1 WtCom= 1.00D+00 WtEn= 0.00D+00
 Coeff-Com: -0.528D-01 0.665D+00 0.387D+00
 Coeff:     -0.528D-01 0.665D+00 0.387D+00
 Gap=     0.183 Goal=   None    Shift=    0.000
 RMSDP=3.03D-06 MaxDP=8.41D-05 DE=-9.81D-07 OVMax= 4.61D-04

 Cycle  15  Pass 1  IDiag  1:
 RMSU=  2.09D-06    CP:  1.00D+00  1.08D+00  1.32D+00
 E= -1490.93943467899     Delta-E=       -0.000000562389 Rises=F Damp=F
 DIIS: error= 2.53D-05 at cycle   4 NSaved=   4.
 NSaved= 4 IEnMin= 4 EnMin= -1490.93943467899     IErMin= 4 ErrMin= 2.53D-05
 ErrMax= 2.53D-05  0.00D+00 EMaxC= 1.00D-01 BMatC= 7.46D-08 BMatP= 1.24D-07
 IDIUse=1 WtCom= 1.00D+00 WtEn= 0.00D+00
 Coeff-Com: -0.119D-01-0.164D+00-0.633D+00 0.181D+01
 Coeff:     -0.119D-01-0.164D+00-0.633D+00 0.181D+01
 Gap=     0.183 Goal=   None    Shift=    0.000
 RMSDP=8.75D-06 MaxDP=3.38D-04 DE=-5.62D-07 OVMax= 1.56D-03

 Cycle  16  Pass 1  IDiag  1:
 RMSU=  1.41D-06    CP:  1.00D+00  1.11D+00  2.56D+00  2.70D+00
 E= -1490.93943594719     Delta-E=       -0.000001268196 Rises=F Damp=F
 DIIS: error= 2.25D-05 at cycle   5 NSaved=   5.
 NSaved= 5 IEnMin= 5 EnMin= -1490.93943594719     IErMin= 5 ErrMin= 2.25D-05
 ErrMax= 2.25D-05  0.00D+00 EMaxC= 1.00D-01 BMatC= 7.79D-08 BMatP= 7.46D-08
 IDIUse=1 WtCom= 1.00D+00 WtEn= 0.00D+00
 Coeff-Com:  0.814D-01-0.102D+01-0.182D+01 0.192D+01 0.184D+01
 Coeff:      0.814D-01-0.102D+01-0.182D+01 0.192D+01 0.184D+01
 Gap=     0.183 Goal=   None    Shift=    0.000
 RMSDP=2.32D-05 MaxDP=8.67D-04 DE=-1.27D-06 OVMax= 4.14D-03

 Cycle  17  Pass 1  IDiag  1:
 RMSU=  2.00D-05    CP:  1.00D+00  1.16D+00  3.00D+00  3.00D+00  3.00D+00
 E= -1490.93943847666     Delta-E=       -0.000002529473 Rises=F Damp=F
 DIIS: error= 1.27D-05 at cycle   6 NSaved=   6.
 NSaved= 6 IEnMin= 6 EnMin= -1490.93943847666     IErMin= 6 ErrMin= 1.27D-05
 ErrMax= 1.27D-05  0.00D+00 EMaxC= 1.00D-01 BMatC= 2.51D-08 BMatP= 7.46D-08
 IDIUse=1 WtCom= 1.00D+00 WtEn= 0.00D+00
 Coeff-Com:  0.553D-01-0.396D+00-0.795D+00 0.398D-01 0.833D+00 0.126D+01
 Coeff:      0.553D-01-0.396D+00-0.795D+00 0.398D-01 0.833D+00 0.126D+01
 Gap=     0.183 Goal=   None    Shift=    0.000
 RMSDP=2.16D-05 MaxDP=8.21D-04 DE=-2.53D-06 OVMax= 3.87D-03

 Cycle  18  Pass 1  IDiag  1:
 RMSU=  3.51D-06    CP:  1.00D+00  1.21D+00  3.00D+00  3.00D+00  3.00D+00
                    CP:  2.06D+00
 E= -1490.93943968006     Delta-E=       -0.000001203406 Rises=F Damp=F
 DIIS: error= 4.73D-06 at cycle   7 NSaved=   7.
 NSaved= 7 IEnMin= 7 EnMin= -1490.93943968006     IErMin= 7 ErrMin= 4.73D-06
 ErrMax= 4.73D-06  0.00D+00 EMaxC= 1.00D-01 BMatC= 6.37D-09 BMatP= 2.51D-08
 IDIUse=1 WtCom= 1.00D+00 WtEn= 0.00D+00
 Coeff-Com: -0.971D-02 0.238D+00 0.326D+00-0.583D+00-0.470D+00 0.480D+00
 Coeff-Com:  0.102D+01
 Coeff:     -0.971D-02 0.238D+00 0.326D+00-0.583D+00-0.470D+00 0.480D+00
 Coeff:      0.102D+01
 Gap=     0.183 Goal=   None    Shift=    0.000
 RMSDP=9.63D-06 MaxDP=3.70D-04 DE=-1.20D-06 OVMax= 1.71D-03

 Cycle  19  Pass 1  IDiag  1:
 RMSU=  7.60D-07    CP:  1.00D+00  1.24D+00  3.00D+00  3.00D+00  3.00D+00
                    CP:  2.52D+00  1.46D+00
 E= -1490.93943986611     Delta-E=       -0.000000186044 Rises=F Damp=F
 DIIS: error= 2.58D-06 at cycle   8 NSaved=   8.
 NSaved= 8 IEnMin= 8 EnMin= -1490.93943986611     IErMin= 8 ErrMin= 2.58D-06
 ErrMax= 2.58D-06  0.00D+00 EMaxC= 1.00D-01 BMatC= 1.14D-09 BMatP= 6.37D-09
 IDIUse=1 WtCom= 1.00D+00 WtEn= 0.00D+00
 Coeff-Com: -0.161D-01 0.189D+00 0.303D+00-0.229D+00-0.391D+00-0.669D-01
 Coeff-Com:  0.388D+00 0.823D+00
 Coeff:     -0.161D-01 0.189D+00 0.303D+00-0.229D+00-0.391D+00-0.669D-01
 Coeff:      0.388D+00 0.823D+00
 Gap=     0.183 Goal=   None    Shift=    0.000
 RMSDP=1.92D-06 MaxDP=7.45D-05 DE=-1.86D-07 OVMax= 3.40D-04

 Cycle  20  Pass 1  IDiag  1:
 RMSU=  3.20D-07    CP:  1.00D+00  1.24D+00  3.00D+00  3.00D+00  3.00D+00
                    CP:  2.61D+00  1.59D+00  1.28D+00
 E= -1490.93943987949     Delta-E=       -0.000000013380 Rises=F Damp=F
 DIIS: error= 1.32D-06 at cycle   9 NSaved=   9.
 NSaved= 9 IEnMin= 9 EnMin= -1490.93943987949     IErMin= 9 ErrMin= 1.32D-06
 ErrMax= 1.32D-06  0.00D+00 EMaxC= 1.00D-01 BMatC= 1.96D-10 BMatP= 1.14D-09
 IDIUse=1 WtCom= 1.00D+00 WtEn= 0.00D+00
 Coeff-Com:  0.176D-02-0.557D-01-0.788D-01 0.143D+00 0.106D+00-0.111D+00
 Coeff-Com: -0.291D+00 0.221D-01 0.126D+01
 Coeff:      0.176D-02-0.557D-01-0.788D-01 0.143D+00 0.106D+00-0.111D+00
 Coeff:     -0.291D+00 0.221D-01 0.126D+01
 Gap=     0.183 Goal=   None    Shift=    0.000
 RMSDP=1.10D-06 MaxDP=4.28D-05 DE=-1.34D-08 OVMax= 1.89D-04

 Cycle  21  Pass 1  IDiag  1:
 RMSU=  1.41D-07    CP:  1.00D+00  1.25D+00  3.00D+00  3.00D+00  3.00D+00
                    CP:  2.67D+00  1.65D+00  1.57D+00  1.57D+00
 E= -1490.93943988247     Delta-E=       -0.000000002979 Rises=F Damp=F
 DIIS: error= 3.46D-07 at cycle  10 NSaved=  10.
 NSaved=10 IEnMin=10 EnMin= -1490.93943988247     IErMin=10 ErrMin= 3.46D-07
 ErrMax= 3.46D-07  0.00D+00 EMaxC= 1.00D-01 BMatC= 1.97D-11 BMatP= 1.96D-10
 IDIUse=1 WtCom= 1.00D+00 WtEn= 0.00D+00
 Coeff-Com:  0.214D-02-0.307D-01-0.494D-01 0.537D-01 0.607D-01-0.626D-02
 Coeff-Com: -0.983D-01-0.886D-01 0.193D+00 0.963D+00
 Coeff:      0.214D-02-0.307D-01-0.494D-01 0.537D-01 0.607D-01-0.626D-02
 Coeff:     -0.983D-01-0.886D-01 0.193D+00 0.963D+00
 Gap=     0.183 Goal=   None    Shift=    0.000
 RMSDP=9.06D-08 MaxDP=1.99D-06 DE=-2.98D-09 OVMax= 1.12D-05

 Cycle  22  Pass 1  IDiag  1:
 RMSU=  3.50D-08    CP:  1.00D+00  1.25D+00  3.00D+00  3.00D+00  3.00D+00
                    CP:  2.67D+00  1.65D+00  1.63D+00  1.74D+00  1.33D+00
 E= -1490.93943988260     Delta-E=       -0.000000000131 Rises=F Damp=F
 DIIS: error= 1.33D-07 at cycle  11 NSaved=  11.
 NSaved=11 IEnMin=11 EnMin= -1490.93943988260     IErMin=11 ErrMin= 1.33D-07
 ErrMax= 1.33D-07  0.00D+00 EMaxC= 1.00D-01 BMatC= 4.79D-12 BMatP= 1.97D-11
 IDIUse=1 WtCom= 1.00D+00 WtEn= 0.00D+00
 Coeff-Com:  0.475D-03-0.222D-02-0.547D-02-0.219D-02 0.379D-02 0.153D-01
 Coeff-Com:  0.827D-02-0.338D-01-0.130D+00 0.348D+00 0.798D+00
 Coeff:      0.475D-03-0.222D-02-0.547D-02-0.219D-02 0.379D-02 0.153D-01
 Coeff:      0.827D-02-0.338D-01-0.130D+00 0.348D+00 0.798D+00
 Gap=     0.183 Goal=   None    Shift=    0.000
 RMSDP=4.89D-08 MaxDP=1.54D-06 DE=-1.31D-10 OVMax= 7.47D-06

 Cycle  23  Pass 1  IDiag  1:
 RMSU=  1.58D-08    CP:  1.00D+00  1.25D+00  3.00D+00  3.00D+00  3.00D+00
                    CP:  2.67D+00  1.65D+00  1.64D+00  1.78D+00  1.45D+00
                    CP:  1.15D+00
 E= -1490.93943988263     Delta-E=       -0.000000000033 Rises=F Damp=F
 DIIS: error= 3.39D-08 at cycle  12 NSaved=  12.
 NSaved=12 IEnMin=12 EnMin= -1490.93943988263     IErMin=12 ErrMin= 3.39D-08
 ErrMax= 3.39D-08  0.00D+00 EMaxC= 1.00D-01 BMatC= 7.66D-13 BMatP= 4.79D-12
 IDIUse=1 WtCom= 1.00D+00 WtEn= 0.00D+00
 Coeff-Com: -0.119D-03 0.335D-02 0.441D-02-0.745D-02-0.724D-02 0.629D-02
 Coeff-Com:  0.157D-01 0.743D-03-0.708D-01-0.344D-01 0.273D+00 0.816D+00
 Coeff:     -0.119D-03 0.335D-02 0.441D-02-0.745D-02-0.724D-02 0.629D-02
 Coeff:      0.157D-01 0.743D-03-0.708D-01-0.344D-01 0.273D+00 0.816D+00
 Gap=     0.183 Goal=   None    Shift=    0.000
 RMSDP=1.89D-08 MaxDP=7.63D-07 DE=-3.32D-11 OVMax= 2.77D-06

 Cycle  24  Pass 1  IDiag  1:
 RMSU=  6.23D-09    CP:  1.00D+00  1.25D+00  3.00D+00  3.00D+00  3.00D+00
                    CP:  2.67D+00  1.66D+00  1.64D+00  1.80D+00  1.50D+00
                    CP:  1.30D+00  1.04D+00
 E= -1490.93943988262     Delta-E=        0.000000000010 Rises=F Damp=F
 DIIS: error= 1.36D-08 at cycle  13 NSaved=  13.
 NSaved=13 IEnMin=12 EnMin= -1490.93943988263     IErMin=13 ErrMin= 1.36D-08
 ErrMax= 1.36D-08  0.00D+00 EMaxC= 1.00D-01 BMatC= 1.17D-13 BMatP= 7.66D-13
 IDIUse=1 WtCom= 1.00D+00 WtEn= 0.00D+00
 Coeff-Com: -0.110D-03 0.154D-02 0.226D-02-0.226D-02-0.324D-02 0.305D-03
 Coeff-Com:  0.452D-02 0.566D-02-0.350D-02-0.639D-01-0.243D-01 0.283D+00
 Coeff-Com:  0.800D+00
 Coeff:     -0.110D-03 0.154D-02 0.226D-02-0.226D-02-0.324D-02 0.305D-03
 Coeff:      0.452D-02 0.566D-02-0.350D-02-0.639D-01-0.243D-01 0.283D+00
 Coeff:      0.800D+00
 Gap=     0.183 Goal=   None    Shift=    0.000
 RMSDP=7.30D-09 MaxDP=2.70D-07 DE= 9.55D-12 OVMax= 1.14D-06

 SCF Done:  E(RwB97XD) =  -1490.93943988     A.U. after   24 cycles
            NFock= 24  Conv=0.73D-08     -V/T= 2.0052
 KE= 1.483207763627D+03 PE=-6.064191264904D+03 EE= 1.813063168298D+03
 Leave Link  502 at Fri Mar  6 16:25:49 2026, MaxMem=  2415919104 cpu:             272.9 elap:              28.2
 (Enter /prod/precompiled/gaussian/16c2/g16/l508.exe)
 QCSCF skips out because SCF is already converged.
 Leave Link  508 at Fri Mar  6 16:25:50 2026, MaxMem=  2415919104 cpu:               0.1 elap:               0.1
 (Enter /prod/precompiled/gaussian/16c2/g16/l801.exe)
 DoSCS=F DFT=T ScalE2(SS,OS)=  1.000000  1.000000
 Range of M.O.s used for correlation:     1   272
 NBasis=   272 NAE=    64 NBE=    64 NFC=     0 NFV=     0
 NROrb=    272 NOA=    64 NOB=    64 NVA=   208 NVB=   208

 **** Warning!!: The largest alpha MO coefficient is  0.12609470D+02

 Leave Link  801 at Fri Mar  6 16:25:50 2026, MaxMem=  2415919104 cpu:               0.2 elap:               0.1
 (Enter /prod/precompiled/gaussian/16c2/g16/l1101.exe)
 Using compressed storage, NAtomX=    24.
 Will process     25 centers per pass.
   1 Symmetry operations used in ECPInt.
 ECPInt:  NShTT=    7750 NPrTT=   30142 LenC2=    7315 LenP2D=   20050.
 LDataN:  DoStor=T MaxTD1= 5 Len=  102
 R6Disp: Adding Grimme-D2 dispersion energy 1st derivatives to the gradient.
 Leave Link 1101 at Fri Mar  6 16:25:50 2026, MaxMem=  2415919104 cpu:               1.8 elap:               0.6
 (Enter /prod/precompiled/gaussian/16c2/g16/l1102.exe)
 Symmetrizing basis deriv contribution to polar:
 IMax=3 JMax=2 DiffMx= 0.00D+00
 Leave Link 1102 at Fri Mar  6 16:25:50 2026, MaxMem=  2415919104 cpu:               0.1 elap:               0.1
 (Enter /prod/precompiled/gaussian/16c2/g16/l1110.exe)
 Forming Gx(P) for the SCF density, NAtomX=    24.
 Integral derivatives from FoFJK, PRISM(SPDF).
 Do as many integral derivatives as possible in FoFJK.
 G2DrvN: MDV=    2415916544.
 G2DrvN: will do    25 centers at a time, making    1 passes.
 Calling FoFCou, ICntrl=  3107 FMM=F I1Cent=   0 AccDes= 0.00D+00.
 FoFJK:  IHMeth= 1 ICntrl=    3107 DoSepK=T KAlg= 0 I1Cent=           0 FoldK=F
 IRaf=         1 NMat=       1 IRICut=       1 DoRegI=T DoRafI=F ISym2E= 0 IDoP0=0 IntGTp=1.
 FoFCou: FMM=F IPFlag=           0 FMFlag=      100000 FMFlg1=           0
         NFxFlg=           0 DoJE=F BraDBF=F KetDBF=F FulRan=T
         wScrn=  0.000000 ICntrl=      3507 IOpCl=  0 I1Cent=           0 NGrid=           0
         NMat0=    1 NMatS0=      1 NMatT0=    0 NMatD0=    1 NMtDS0=    0 NMtDT0=    0
 Symmetry not used in FoFCou.
 End of G2Drv F.D. properties file   721 does not exist.
 End of G2Drv F.D. properties file   722 does not exist.
 End of G2Drv F.D. properties file   788 does not exist.
 Leave Link 1110 at Fri Mar  6 16:26:09 2026, MaxMem=  2415919104 cpu:             219.5 elap:              19.0
 (Enter /prod/precompiled/gaussian/16c2/g16/l1002.exe)
 Minotr:  Closed shell wavefunction.
          IDoAtm=111111111111111111111111
          Direct CPHF calculation.
          Differentiating once with respect to electric field.
                with respect to dipole field.
          Differentiating once with respect to nuclear coordinates.
          Requested convergence is 1.0D-08 RMS, and 1.0D-07 maximum.
          Secondary convergence is 1.0D-12 RMS, and 1.0D-12 maximum.
          NewPWx=T KeepS1=F KeepF1=F KeepIn=T MapXYZ=F SortEE=F KeepMc=T.
         7195 words used for storage of precomputed grid.
 Keep R1 ints in memory in canonical form, NReq=1402150885.
 FoFCou: FMM=F IPFlag=           0 FMFlag=           0 FMFlg1=           0
         NFxFlg=           0 DoJE=F BraDBF=F KetDBF=F FulRan=T
         wScrn=  0.000000 ICntrl=       600 IOpCl=  0 I1Cent=           0 NGrid=           0
         NMat0=    1 NMatS0=  37128 NMatT0=    0 NMatD0=    1 NMtDS0=    0 NMtDT0=    0
 Symmetry not used in FoFCou.
 Two-electron integral symmetry not used.
          MDV=    2415919104 using IRadAn=       1.
          Solving linear equations simultaneously, MaxMat=       0.
          There are    75 degrees of freedom in the 1st order CPHF.  IDoFFX=6 NUNeed=     3.
     72 vectors produced by pass  0 Test12= 1.77D-14 1.33D-09 XBig12= 1.25D+02 6.10D+00.
 AX will form    72 AO Fock derivatives at one time.
     72 vectors produced by pass  1 Test12= 1.77D-14 1.33D-09 XBig12= 1.79D+01 1.21D+00.
     72 vectors produced by pass  2 Test12= 1.77D-14 1.33D-09 XBig12= 8.48D-01 1.58D-01.
     72 vectors produced by pass  3 Test12= 1.77D-14 1.33D-09 XBig12= 1.57D-02 1.47D-02.
     72 vectors produced by pass  4 Test12= 1.77D-14 1.33D-09 XBig12= 1.76D-04 1.20D-03.
     72 vectors produced by pass  5 Test12= 1.77D-14 1.33D-09 XBig12= 1.21D-06 9.61D-05.
     67 vectors produced by pass  6 Test12= 1.77D-14 1.33D-09 XBig12= 6.78D-09 6.58D-06.
     39 vectors produced by pass  7 Test12= 1.77D-14 1.33D-09 XBig12= 3.34D-11 5.36D-07.
      3 vectors produced by pass  8 Test12= 1.77D-14 1.33D-09 XBig12= 1.65D-13 3.54D-08.
      3 vectors produced by pass  9 Test12= 1.77D-14 1.33D-09 XBig12= 8.14D-16 3.17D-09.
 InvSVY:  IOpt=1 It=  1 EMax= 1.00D-14
 Solved reduced A of dimension   544 with    75 vectors.
 FullF1:  Do perturbations      1 to       3.
 Isotropic polarizability for W=    0.000000      201.35 Bohr**3.
 End of Minotr F.D. properties file   721 does not exist.
 End of Minotr F.D. properties file   722 does not exist.
 End of Minotr F.D. properties file   788 does not exist.
 Leave Link 1002 at Fri Mar  6 16:27:08 2026, MaxMem=  2415919104 cpu:             339.7 elap:              58.3
 (Enter /prod/precompiled/gaussian/16c2/g16/l601.exe)
 Copying SCF densities to generalized density rwf, IOpCl= 0 IROHF=0.

 **********************************************************************

            Population analysis using the SCF Density.

 **********************************************************************

 Alpha  occ. eigenvalues -- -101.69447-101.69190 -14.51135 -14.49873 -10.37658
 Alpha  occ. eigenvalues --  -10.37191 -10.36358 -10.36327 -10.32402 -10.32380
 Alpha  occ. eigenvalues --  -10.32098 -10.31863 -10.31790 -10.31790 -10.31669
 Alpha  occ. eigenvalues --  -10.31615  -9.60194  -9.59925  -7.35556  -7.35303
 Alpha  occ. eigenvalues --   -7.34658  -7.34542  -7.34368  -7.34284  -1.15713
 Alpha  occ. eigenvalues --   -1.00457  -0.99812  -0.95497  -0.94191  -0.90175
 Alpha  occ. eigenvalues --   -0.85880  -0.83641  -0.83388  -0.77808  -0.72070
 Alpha  occ. eigenvalues --   -0.71684  -0.71589  -0.66817  -0.63705  -0.60691
 Alpha  occ. eigenvalues --   -0.59054  -0.58689  -0.57615  -0.54760  -0.54358
 Alpha  occ. eigenvalues --   -0.52573  -0.52404  -0.52211  -0.51874  -0.48251
 Alpha  occ. eigenvalues --   -0.47606  -0.46936  -0.46308  -0.44865  -0.44330
 Alpha  occ. eigenvalues --   -0.43913  -0.42770  -0.41559  -0.40164  -0.36316
 Alpha  occ. eigenvalues --   -0.34567  -0.33468  -0.32922  -0.24941
 Alpha virt. eigenvalues --   -0.06683   0.03632   0.04735   0.06407   0.06789
 Alpha virt. eigenvalues --    0.10891   0.11612   0.15599   0.16208   0.18136
 Alpha virt. eigenvalues --    0.18442   0.21001   0.21459   0.22124   0.22384
 Alpha virt. eigenvalues --    0.22772   0.23059   0.27170   0.30356   0.32137
 Alpha virt. eigenvalues --    0.33258   0.34997   0.35320   0.35658   0.36179
 Alpha virt. eigenvalues --    0.37605   0.38159   0.41752   0.42464   0.44603
 Alpha virt. eigenvalues --    0.46190   0.47160   0.48210   0.48850   0.49056
 Alpha virt. eigenvalues --    0.50911   0.52337   0.53974   0.54134   0.54454
 Alpha virt. eigenvalues --    0.54815   0.55633   0.55931   0.57335   0.58618
 Alpha virt. eigenvalues --    0.59919   0.60442   0.60663   0.61477   0.61803
 Alpha virt. eigenvalues --    0.63016   0.64361   0.65002   0.67380   0.67952
 Alpha virt. eigenvalues --    0.70037   0.70241   0.71343   0.72148   0.72563
 Alpha virt. eigenvalues --    0.73597   0.73832   0.74004   0.74509   0.75507
 Alpha virt. eigenvalues --    0.76333   0.78287   0.78618   0.79122   0.79294
 Alpha virt. eigenvalues --    0.79875   0.80186   0.80719   0.81438   0.82341
 Alpha virt. eigenvalues --    0.83593   0.84374   0.86313   0.87351   0.88005
 Alpha virt. eigenvalues --    0.88490   0.88976   0.90661   0.92011   0.94226
 Alpha virt. eigenvalues --    0.94822   0.95783   0.97110   0.98043   0.98652
 Alpha virt. eigenvalues --    1.01722   1.03094   1.05472   1.05688   1.07177
 Alpha virt. eigenvalues --    1.10212   1.13824   1.15592   1.17435   1.21753
 Alpha virt. eigenvalues --    1.23381   1.25624   1.26242   1.27780   1.28856
 Alpha virt. eigenvalues --    1.30622   1.31395   1.32202   1.32824   1.33577
 Alpha virt. eigenvalues --    1.34430   1.34982   1.36338   1.36804   1.37866
 Alpha virt. eigenvalues --    1.39094   1.40264   1.42270   1.46483   1.50313
 Alpha virt. eigenvalues --    1.53453   1.55803   1.59462   1.60089   1.61288
 Alpha virt. eigenvalues --    1.62543   1.73224   1.74990   1.77734   1.78037
 Alpha virt. eigenvalues --    1.79089   1.79404   1.80307   1.81851   1.83672
 Alpha virt. eigenvalues --    1.83912   1.84237   1.84582   1.87053   1.87189
 Alpha virt. eigenvalues --    1.88885   1.91322   1.91824   1.92475   1.96964
 Alpha virt. eigenvalues --    1.98036   1.98780   2.02118   2.02244   2.02478
 Alpha virt. eigenvalues --    2.02674   2.03509   2.07515   2.08416   2.10090
 Alpha virt. eigenvalues --    2.11815   2.15464   2.16828   2.16967   2.20863
 Alpha virt. eigenvalues --    2.21930   2.22095   2.22319   2.23196   2.31194
 Alpha virt. eigenvalues --    2.31990   2.32536   2.34170   2.34929   2.35382
 Alpha virt. eigenvalues --    2.36604   2.37489   2.38125   2.38531   2.46833
 Alpha virt. eigenvalues --    2.47061   2.49472   2.54733   2.59216   2.61733
 Alpha virt. eigenvalues --    2.65321   2.67247   2.67481   2.68907   2.69560
 Alpha virt. eigenvalues --    2.70488   2.75289   2.75883   2.77476   2.80489
 Alpha virt. eigenvalues --    2.81265   2.85628   2.88061   2.89609   2.90086
 Alpha virt. eigenvalues --    2.93898   2.98305   3.04506   3.08696   3.13438
 Alpha virt. eigenvalues --    3.15053   3.18897   3.23626   3.34345   3.34570
 Alpha virt. eigenvalues --    3.51459   3.65771   3.68947
          Condensed to atoms (all electrons):
               1          2          3          4          5          6
     1  C    5.277152   0.190776  -0.053549   0.082766  -0.139952   0.101324
     2  C    0.190776   5.349626   0.251757   0.340060   0.084367  -0.148239
     3  Cl  -0.053549   0.251757  16.913203  -0.061108   0.002568   0.000639
     4  C    0.082766   0.340060  -0.061108   4.955125   0.326518   0.074656
     5  C   -0.139952   0.084367   0.002568   0.326518   5.057133   0.265579
     6  C    0.101324  -0.148239   0.000639   0.074656   0.265579   5.080203
     7  C    0.259852   0.045753   0.001612  -0.108997   0.075409   0.301994
     8  N    0.374937  -0.065109  -0.005309   0.003279  -0.000277   0.006990
     9  N   -0.033951  -0.043495   0.006701  -0.000580   0.000044  -0.000507
    10  C   -0.023473   0.002143  -0.017192  -0.000331  -0.000034   0.000129
    11  C    0.001695  -0.000646  -0.000012   0.000034   0.000051   0.000013
    12  Cl  -0.034576  -0.000031   0.000025  -0.000427   0.000031  -0.001348
    13  C   -0.000755   0.000068  -0.000352   0.000002  -0.000001  -0.000001
    14  C   -0.000019   0.000037   0.000058   0.000000  -0.000000   0.000000
    15  C    0.000133   0.000034  -0.001264  -0.000002   0.000000  -0.000000
    16  C   -0.002365   0.000394   0.012193   0.000051   0.000000   0.000003
    17  H    0.015717  -0.065441   0.001519   0.439612  -0.055453   0.013198
    18  H   -0.001614   0.013917  -0.000134  -0.061188   0.446496  -0.064929
    19  H    0.013529  -0.001783   0.000007   0.013205  -0.067379   0.447746
    20  H   -0.071139   0.018386  -0.000057  -0.002713   0.013979  -0.066240
    21  H    0.000069   0.000000  -0.000002   0.000000  -0.000000   0.000000
    22  H   -0.000000  -0.000000   0.000000   0.000000   0.000000   0.000000
    23  H    0.000000  -0.000001  -0.000014  -0.000000   0.000000   0.000000
    24  H    0.000153   0.000036   0.002465   0.000008   0.000000   0.000000
               7          8          9         10         11         12
     1  C    0.259852   0.374937  -0.033951  -0.023473   0.001695  -0.034576
     2  C    0.045753  -0.065109  -0.043495   0.002143  -0.000646  -0.000031
     3  Cl   0.001612  -0.005309   0.006701  -0.017192  -0.000012   0.000025
     4  C   -0.108997   0.003279  -0.000580  -0.000331   0.000034  -0.000427
     5  C    0.075409  -0.000277   0.000044  -0.000034   0.000051   0.000031
     6  C    0.301994   0.006990  -0.000507   0.000129   0.000013  -0.001348
     7  C    5.104940  -0.087365   0.019232  -0.002131   0.000402   0.007875
     8  N   -0.087365   6.703810   0.195621  -0.023956  -0.044437   0.004223
     9  N    0.019232   0.195621   6.681563   0.429323  -0.079090  -0.009240
    10  C   -0.002131  -0.023956   0.429323   5.190425   0.160676  -0.062926
    11  C    0.000402  -0.044437  -0.079090   0.160676   5.419782   0.251553
    12  Cl   0.007875   0.004223  -0.009240  -0.062926   0.251553  16.940970
    13  C    0.000055  -0.000179   0.005626   0.097574   0.311129  -0.055828
    14  C    0.000000   0.000038  -0.000420  -0.140565   0.087662   0.002620
    15  C    0.000005  -0.000517   0.007260   0.104201  -0.150540   0.000577
    16  C   -0.000234   0.017202  -0.088324   0.264671   0.055152   0.002091
    17  H   -0.001908  -0.000056   0.000030   0.000034  -0.000004  -0.000002
    18  H    0.012392   0.000005   0.000000  -0.000000  -0.000000   0.000000
    19  H   -0.060552  -0.000086   0.000003   0.000000  -0.000001  -0.000011
    20  H    0.451076  -0.003686   0.000372   0.000135   0.000051   0.003067
    21  H   -0.000011   0.000039  -0.000089   0.015471  -0.064599   0.000876
    22  H   -0.000000   0.000001   0.000005  -0.001672   0.014171  -0.000116
    23  H   -0.000000   0.000004  -0.000091   0.013568  -0.001683   0.000007
    24  H   -0.000009   0.000295  -0.004262  -0.071505   0.019586  -0.000057
              13         14         15         16         17         18
     1  C   -0.000755  -0.000019   0.000133  -0.002365   0.015717  -0.001614
     2  C    0.000068   0.000037   0.000034   0.000394  -0.065441   0.013917
     3  Cl  -0.000352   0.000058  -0.001264   0.012193   0.001519  -0.000134
     4  C    0.000002   0.000000  -0.000002   0.000051   0.439612  -0.061188
     5  C   -0.000001  -0.000000   0.000000   0.000000  -0.055453   0.446496
     6  C   -0.000001   0.000000  -0.000000   0.000003   0.013198  -0.064929
     7  C    0.000055   0.000000   0.000005  -0.000234  -0.001908   0.012392
     8  N   -0.000179   0.000038  -0.000517   0.017202  -0.000056   0.000005
     9  N    0.005626  -0.000420   0.007260  -0.088324   0.000030   0.000000
    10  C    0.097574  -0.140565   0.104201   0.264671   0.000034  -0.000000
    11  C    0.311129   0.087662  -0.150540   0.055152  -0.000004  -0.000000
    12  Cl  -0.055828   0.002620   0.000577   0.002091  -0.000002   0.000000
    13  C    4.972997   0.321834   0.077002  -0.113417   0.000000   0.000000
    14  C    0.321834   5.061607   0.270707   0.074043  -0.000000   0.000000
    15  C    0.077002   0.270707   5.072139   0.302266   0.000000  -0.000000
    16  C   -0.113417   0.074043   0.302266   5.106608  -0.000007   0.000000
    17  H    0.000000  -0.000000   0.000000  -0.000007   0.640119  -0.011731
    18  H    0.000000   0.000000  -0.000000   0.000000  -0.011731   0.648084
    19  H    0.000000  -0.000000   0.000000  -0.000000  -0.000228  -0.010908
    20  H    0.000010  -0.000000   0.000000  -0.000007   0.000016  -0.000208
    21  H    0.439525  -0.056293   0.012834  -0.001753  -0.000000   0.000000
    22  H   -0.061534   0.446251  -0.064843   0.012471   0.000000  -0.000000
    23  H    0.012871  -0.066735   0.447541  -0.060805   0.000000  -0.000000
    24  H   -0.003085   0.014168  -0.069082   0.453025  -0.000001   0.000000
              19         20         21         22         23         24
     1  C    0.013529  -0.071139   0.000069  -0.000000   0.000000   0.000153
     2  C   -0.001783   0.018386   0.000000  -0.000000  -0.000001   0.000036
     3  Cl   0.000007  -0.000057  -0.000002   0.000000  -0.000014   0.002465
     4  C    0.013205  -0.002713   0.000000   0.000000  -0.000000   0.000008
     5  C   -0.067379   0.013979  -0.000000   0.000000   0.000000   0.000000
     6  C    0.447746  -0.066240   0.000000   0.000000   0.000000   0.000000
     7  C   -0.060552   0.451076  -0.000011  -0.000000  -0.000000  -0.000009
     8  N   -0.000086  -0.003686   0.000039   0.000001   0.000004   0.000295
     9  N    0.000003   0.000372  -0.000089   0.000005  -0.000091  -0.004262
    10  C    0.000000   0.000135   0.015471  -0.001672   0.013568  -0.071505
    11  C   -0.000001   0.000051  -0.064599   0.014171  -0.001683   0.019586
    12  Cl  -0.000011   0.003067   0.000876  -0.000116   0.000007  -0.000057
    13  C    0.000000   0.000010   0.439525  -0.061534   0.012871  -0.003085
    14  C   -0.000000  -0.000000  -0.056293   0.446251  -0.066735   0.014168
    15  C    0.000000   0.000000   0.012834  -0.064843   0.447541  -0.069082
    16  C   -0.000000  -0.000007  -0.001753   0.012471  -0.060805   0.453025
    17  H   -0.000228   0.000016  -0.000000   0.000000   0.000000  -0.000001
    18  H   -0.010908  -0.000208   0.000000  -0.000000  -0.000000   0.000000
    19  H    0.649096  -0.011237  -0.000000  -0.000000   0.000000  -0.000000
    20  H   -0.011237   0.644490  -0.000001   0.000000  -0.000000  -0.000001
    21  H   -0.000000  -0.000001   0.643427  -0.011565  -0.000213   0.000020
    22  H   -0.000000   0.000000  -0.011565   0.648937  -0.010916  -0.000202
    23  H    0.000000  -0.000000  -0.000213  -0.010916   0.649291  -0.011140
    24  H   -0.000000  -0.000001   0.000020  -0.000202  -0.011140   0.646864
 Mulliken charges:
               1
     1  C    0.043290
     2  C    0.027392
     3  Cl  -0.053753
     4  C    0.000032
     5  C   -0.009080
     6  C   -0.011211
     7  C   -0.019389
     8  N   -0.075465
     9  N   -0.085730
    10  C    0.065434
    11  C    0.019054
    12  Cl  -0.049352
    13  C   -0.003542
    14  C   -0.014994
    15  C   -0.008452
    16  C   -0.033258
    17  H    0.024584
    18  H    0.029817
    19  H    0.028599
    20  H    0.023705
    21  H    0.022265
    22  H    0.029012
    23  H    0.028316
    24  H    0.022724
 Sum of Mulliken charges =  -0.00000
 Mulliken charges with hydrogens summed into heavy atoms:
               1
     1  C    0.043290
     2  C    0.027392
     3  Cl  -0.053753
     4  C    0.024615
     5  C    0.020737
     6  C    0.017388
     7  C    0.004317
     8  N   -0.075465
     9  N   -0.085730
    10  C    0.065434
    11  C    0.019054
    12  Cl  -0.049352
    13  C    0.018723
    14  C    0.014019
    15  C    0.019864
    16  C   -0.010533
 APT charges:
               1
     1  C    0.468657
     2  C    0.143089
     3  Cl  -0.154957
     4  C   -0.101716
     5  C   -0.107865
     6  C    0.013088
     7  C   -0.085508
     8  N   -0.390539
     9  N   -0.236364
    10  C    0.432095
    11  C    0.085015
    12  Cl  -0.148130
    13  C   -0.062619
    14  C   -0.150216
    15  C    0.052948
    16  C   -0.142062
    17  H    0.061363
    18  H    0.043798
    19  H    0.038426
    20  H    0.052003
    21  H    0.061605
    22  H    0.040326
    23  H    0.039889
    24  H    0.047673
 Sum of APT charges =  -0.00000
 APT charges with hydrogens summed into heavy atoms:
               1
     1  C    0.468657
     2  C    0.143089
     3  Cl  -0.154957
     4  C   -0.040353
     5  C   -0.064066
     6  C    0.051514
     7  C   -0.033505
     8  N   -0.390539
     9  N   -0.236364
    10  C    0.432095
    11  C    0.085015
    12  Cl  -0.148130
    13  C   -0.001014
    14  C   -0.109890
    15  C    0.092838
    16  C   -0.094388
 Electronic spatial extent (au):  <R**2>=           5432.1764
 Charge=             -0.0000 electrons
 Dipole moment (field-independent basis, Debye):
    X=              1.6498    Y=              1.9265    Z=             -1.3609  Tot=              2.8784
 Quadrupole moment (field-independent basis, Debye-Ang):
   XX=            -93.8804   YY=           -109.8487   ZZ=            -95.7321
   XY=             -3.8808   XZ=              7.3096   YZ=              2.4363
 Traceless Quadrupole moment (field-independent basis, Debye-Ang):
   XX=              5.9400   YY=            -10.0283   ZZ=              4.0883
   XY=             -3.8808   XZ=              7.3096   YZ=              2.4363
 Octapole moment (field-independent basis, Debye-Ang**2):
  XXX=           -340.3538  YYY=            454.5732  ZZZ=            -56.8730  XYY=           -145.2151
  XXY=            117.3475  XXZ=              0.0396  XZZ=           -130.4025  YZZ=            135.9209
  YYZ=            -41.7923  XYZ=             -3.6616
 Hexadecapole moment (field-independent basis, Debye-Ang**3):
 XXXX=          -2849.4828 YYYY=          -2490.9460 ZZZZ=          -1596.8889 XXXY=            870.1377
 XXXZ=           -502.8700 YYYX=           1057.0318 YYYZ=            254.4120 ZZZX=           -486.4513
 ZZZY=            192.9162 XXYY=           -954.5912 XXZZ=           -758.5825 YYZZ=           -691.1904
 XXYZ=             52.6458 YYXZ=           -210.3347 ZZXY=            323.5696
 N-N= 1.276980893096D+03 E-N=-6.064191267699D+03  KE= 1.483207763627D+03
  Exact polarizability:     241.923     -59.236     152.785      90.936     -22.919     209.347
 Approx polarizability:     206.709      -8.721     172.492      50.156       4.233     244.265
 No NMR shielding tensors so no spin-rotation constants.
 Leave Link  601 at Fri Mar  6 16:27:08 2026, MaxMem=  2415919104 cpu:               0.6 elap:               0.2
 (Enter /prod/precompiled/gaussian/16c2/g16/l701.exe)
 ... and contract with generalized density number  0.
 Compute integral second derivatives.
 R6Disp: Adding Grimme-D2 dispersion energy 2nd derivatives to the Hessian.
   1 Symmetry operations used in ECPInt.
 ECPInt:  NShTT=    7750 NPrTT=   30142 LenC2=    7315 LenP2D=   20050.
 LDataN:  DoStor=T MaxTD1= 6 Len=  172
 Leave Link  701 at Fri Mar  6 16:27:08 2026, MaxMem=  2415919104 cpu:               1.1 elap:               0.3
 (Enter /prod/precompiled/gaussian/16c2/g16/l702.exe)
 L702 exits ... SP integral derivatives will be done elsewhere.
 Leave Link  702 at Fri Mar  6 16:27:08 2026, MaxMem=  2415919104 cpu:               0.1 elap:               0.1
 (Enter /prod/precompiled/gaussian/16c2/g16/l703.exe)
 Integral derivatives from FoFJK, PRISM(SPDF).
 Compute integral second derivatives, UseDBF=F ICtDFT=           0.
 Calling FoFJK, ICntrl=    100127 FMM=F ISym2X=0 I1Cent= 0 IOpClX= 0 NMat=1 NMatS=1 NMatT=0.
 FoFJK:  IHMeth= 1 ICntrl=  100127 DoSepK=T KAlg= 0 I1Cent=           0 FoldK=F
 IRaf=         1 NMat=       1 IRICut=       1 DoRegI=T DoRafI=F ISym2E= 0 IDoP0=0 IntGTp=1.
 FoFCou: FMM=F IPFlag=           0 FMFlag=      100000 FMFlg1=         800
         NFxFlg=           0 DoJE=F BraDBF=F KetDBF=F FulRan=T
         wScrn=  0.000000 ICntrl=    100527 IOpCl=  0 I1Cent=           0 NGrid=           0
         NMat0=    1 NMatS0=      1 NMatT0=    0 NMatD0=    1 NMtDS0=    0 NMtDT0=    0
 Symmetry not used in FoFCou.
 Leave Link  703 at Fri Mar  6 16:27:53 2026, MaxMem=  2415919104 cpu:             431.1 elap:              44.7
 (Enter /prod/precompiled/gaussian/16c2/g16/l716.exe)
 Dipole        = 6.49077084D-01 7.57947401D-01-5.35435653D-01
 Polarizability= 2.41923397D+02-5.92361896D+01 1.52784967D+02
                 9.09363249D+01-2.29187456D+01 2.09346713D+02
 -------------------------------------------------------------------
 Center     Atomic                   Forces (Hartrees/Bohr)
 Number     Number              X              Y              Z
 -------------------------------------------------------------------
      1        6           0.024687224   -0.025629732   -0.027905675
      2        6           0.001304305    0.012124164   -0.003261937
      3       17          -0.000470620   -0.004098719    0.004045406
      4        6          -0.005014703   -0.008345701   -0.002673813
      5        6           0.003294337    0.002751389    0.006452904
      6        6           0.002440069   -0.017727409    0.010439657
      7        6          -0.009004373    0.016281552   -0.013209183
      8        7          -0.093287040    0.070495309   -0.014690254
      9        7           0.078313044   -0.083328065    0.027880504
     10        6          -0.024741542    0.057261088    0.016144877
     11        6           0.018011410    0.002332713   -0.007962562
     12       17           0.008662111   -0.009169231   -0.005938226
     13        6          -0.003809115   -0.002693183    0.009306320
     14        6          -0.001023054   -0.001605202   -0.007703968
     15        6          -0.019339233   -0.003673202    0.001310060
     16        6           0.021969086   -0.000804006    0.006281501
     17        1           0.001045995    0.000642990    0.003875407
     18        1          -0.000178937    0.002332462   -0.001268619
     19        1          -0.000295426   -0.002567232   -0.001849214
     20        1           0.001127581   -0.002887398    0.003795315
     21        1          -0.000816566   -0.001759741   -0.003917704
     22        1           0.002137647   -0.000023844   -0.000951416
     23        1          -0.000311775    0.000664733    0.002565444
     24        1          -0.004700425   -0.000573734   -0.000764821
 -------------------------------------------------------------------
 Cartesian Forces:  Max     0.093287040 RMS     0.022677184
 Leave Link  716 at Fri Mar  6 16:27:53 2026, MaxMem=  2415919104 cpu:               0.1 elap:               0.1
 (Enter /prod/precompiled/gaussian/16c2/g16/l103.exe)

 GradGradGradGradGradGradGradGradGradGradGradGradGradGradGradGradGradGrad
 Berny optimization.
 Step   1 in ReCalcFC=30 IGetFC= 4 recover analytic Hessian.
 Search for a saddle point.
 Step number   1 out of a maximum of  144
 All quantities printed in internal units (Hartrees-Bohrs-Radians)
 Swapping is turned off.
 Second derivative matrix not updated -- analytic derivatives used.
 ITU=  0
     Eigenvalues ---   -0.00033   0.00041   0.00145   0.00214   0.00816
     Eigenvalues ---    0.01040   0.01196   0.01814   0.01993   0.02309
     Eigenvalues ---    0.02508   0.02548   0.02648   0.04667   0.04889
     Eigenvalues ---    0.05123   0.05211   0.05275   0.05299   0.05619
     Eigenvalues ---    0.06072   0.06542   0.07787   0.08083   0.08361
     Eigenvalues ---    0.09383   0.09782   0.10302   0.10364   0.11642
     Eigenvalues ---    0.14420   0.16553   0.16855   0.17732   0.18206
     Eigenvalues ---    0.19757   0.20053   0.21057   0.22159   0.24116
     Eigenvalues ---    0.24535   0.28888   0.29268   0.37620   0.39087
     Eigenvalues ---    0.41641   0.42959   0.54018   0.55792   0.63532
     Eigenvalues ---    0.65259   0.79177   0.81918   0.82342   0.85027
     Eigenvalues ---    0.87370   0.88755   1.10053   1.11446   1.12868
     Eigenvalues ---    1.13218   1.25919   1.26889   1.32146   1.33063
     Eigenvalues ---    1.44532
 Eigenvectors required to have negative eigenvalues:
                          Y12       X19       X20       X3        Y23
   1                    0.34200  -0.31039  -0.29654   0.25777  -0.23913
                          Y24       X7        X6        Y21       X17
   1                   -0.22661  -0.20979  -0.20750   0.20063   0.18788
 RFO step:  Lambda0=7.146869386D-04 Lambda=-1.00379826D-01.
 Linear search not attempted -- option 19 set.
 Maximum step size (   0.300) exceeded in Quadratic search.
    -- Step size scaled by   0.285
 B after Tr=     0.004727    0.004479   -0.002911
         Rot=    1.000000   -0.000244    0.000033   -0.000198 Ang=  -0.04 deg.
 Variable       Old X    -DE/DX   Delta X   Delta X   Delta X     New X
                                 (Linear)    (Quad)   (Total)
    X1       -0.30467   0.02469   0.00000  -0.00132   0.00447  -0.30020
    Y1       -2.53082  -0.02563   0.00000   0.00435   0.00911  -2.52172
    Z1       -0.80454  -0.02791   0.00000  -0.01320  -0.01736  -0.82190
    X2        0.00000   0.00130   0.00000   0.02441   0.02913   0.02913
    Y2        0.00000   0.01212   0.00000   0.00731   0.01181   0.01181
    Z2        0.00000  -0.00326   0.00000  -0.02888  -0.03179  -0.03179
    X3        1.07481  -0.00047   0.00000   0.05639   0.06056   1.13537
    Y3        0.90363  -0.00410   0.00000   0.00299   0.00649   0.91012
    Z3        2.96540   0.00405   0.00000  -0.03463  -0.03703   2.92837
    X4       -0.59274  -0.00501   0.00000   0.01380   0.01783  -0.57491
    Y4        2.02669  -0.00835   0.00000  -0.00401   0.00104   2.02773
    Z4       -1.61263  -0.00267   0.00000  -0.03058  -0.03254  -1.64517
    X5       -1.50648   0.00329   0.00000  -0.01317  -0.00881  -1.51529
    Y5        1.60044   0.00275   0.00000  -0.01275  -0.00690   1.59354
    Z5       -4.04008   0.00645   0.00000  -0.01511  -0.01735  -4.05743
    X6       -1.80760   0.00244   0.00000  -0.04628  -0.04088  -1.84848
    Y6       -0.86345  -0.01773   0.00000  -0.02082  -0.01469  -0.87814
    Z6       -4.88702   0.01044   0.00000   0.00748   0.00401  -4.88301
    X7       -1.20089  -0.00900   0.00000  -0.05011  -0.04401  -1.24491
    Y7       -2.89449   0.01628   0.00000  -0.00792  -0.00234  -2.89683
    Z7       -3.29320  -0.01321   0.00000   0.00655   0.00214  -3.29106
    X8        0.15621  -0.09329   0.00000  -0.09659  -0.09004   0.06617
    Y8       -4.78250   0.07050   0.00000   0.07259   0.07677  -4.70572
    Z8        0.60843  -0.01469   0.00000   0.04435   0.03915   0.64757
    X9        1.14953   0.07831   0.00000   0.03452   0.04086   1.19039
    Y9       -4.40264  -0.08333   0.00000  -0.11752  -0.11389  -4.51653
    Z9        2.70621   0.02788   0.00000  -0.00038  -0.00542   2.70079
   X10        3.81704  -0.02474   0.00000   0.01482   0.02110   3.83814
   Y10       -4.40264   0.05726   0.00000   0.02783   0.03252  -4.37013
   Z10        2.70621   0.01614   0.00000  -0.00861  -0.01340   2.69280
   X11        5.33002   0.01801   0.00000   0.02031   0.02688   5.35690
   Y11       -4.79128   0.00233   0.00000   0.04238   0.04872  -4.74256
   Z11        0.55995  -0.00796   0.00000  -0.00686  -0.01173   0.54822
   X12        4.06874   0.00866   0.00000   0.03494   0.04197   4.11072
   Y12       -5.48136  -0.00917   0.00000   0.06623   0.07351  -5.40786
   Z12       -2.37838  -0.00594   0.00000  -0.01845  -0.02373  -2.40210
   X13        7.96681  -0.00381   0.00000   0.01572   0.02219   7.98900
   Y13       -4.53851  -0.00269   0.00000   0.02371   0.03101  -4.50750
   Z13        0.69917   0.00931   0.00000   0.01571   0.01113   0.71030
   X14        9.12857  -0.00102   0.00000   0.00051   0.00658   9.13514
   Y14       -3.87348  -0.00161   0.00000  -0.00587   0.00077  -3.87271
   Z14        2.96884  -0.00770   0.00000   0.02792   0.02372   2.99256
   X15        7.66201  -0.01934   0.00000  -0.01066  -0.00490   7.65711
   Y15       -3.43591  -0.00367   0.00000  -0.03188  -0.02687  -3.46277
   Z15        5.10238   0.00131   0.00000   0.02978   0.02569   5.12807
   X16        5.02936   0.02197   0.00000  -0.00132   0.00455   5.03391
   Y16       -3.68533  -0.00080   0.00000  -0.02984  -0.02580  -3.71113
   Z16        4.96432   0.00628   0.00000   0.01665   0.01226   4.97659
   X17       -0.34802   0.00105   0.00000   0.04338   0.04660  -0.30142
   Y17        3.95991   0.00064   0.00000  -0.00352   0.00133   3.96124
   Z17       -0.95945   0.00388   0.00000  -0.03886  -0.03986  -0.99931
   X18       -1.97666  -0.00018   0.00000  -0.01110  -0.00728  -1.98394
   Y18        3.19155   0.00233   0.00000  -0.01629  -0.01003   3.18151
   Z18       -5.25350  -0.00127   0.00000  -0.02209  -0.02359  -5.27708
   X19       -2.51924  -0.00030   0.00000  -0.07371  -0.06804  -2.58728
   Y19       -1.20915  -0.00257   0.00000  -0.02821  -0.02146  -1.23060
   Z19       -6.78536  -0.00185   0.00000   0.01747   0.01379  -6.77158
   X20       -1.44115   0.00113   0.00000  -0.07288  -0.06598  -1.50713
   Y20       -4.80726  -0.00289   0.00000  -0.01749  -0.01168  -4.81893
   Z20       -4.01452   0.00380   0.00000   0.03767   0.03230  -3.98222
   X21        9.11829  -0.00082   0.00000   0.01620   0.02289   9.14118
   Y21       -4.82637  -0.00176   0.00000   0.04340   0.05198  -4.77440
   Z21       -0.97588  -0.00392   0.00000   0.01121   0.00658  -0.96930
   X22       11.17367   0.00214   0.00000   0.00199   0.00797  11.18164
   Y22       -3.67181  -0.00002   0.00000  -0.00966  -0.00226  -3.67406
   Z22        3.05682  -0.00095   0.00000   0.03946   0.03550   3.09232
   X23        8.55538  -0.00031   0.00000  -0.01564  -0.01021   8.54517
   Y23       -2.87579   0.00066   0.00000  -0.05681  -0.05231  -2.92810
   Z23        6.86793   0.00257   0.00000   0.04148   0.03771   6.90563
   X24        3.90244  -0.00470   0.00000  -0.01903  -0.01343   3.88902
   Y24       -3.27221  -0.00057   0.00000  -0.05960  -0.05682  -3.32904
   Z24        6.63390  -0.00076   0.00000   0.01408   0.00981   6.64371
         Item               Value     Threshold  Converged?
 Maximum Force            0.093287     0.000450     NO 
 RMS     Force            0.022677     0.000300     NO 
 Maximum Displacement     0.113890     0.001800     NO 
 RMS     Displacement     0.034973     0.001200     NO 
 Predicted change in Energy=-2.607917D-02
 Lowest energy point so far.  Saving SCF results.
 Step   1 in ReCalcFC=30 IGetFC= 0 compute gradient.
 GradGradGradGradGradGradGradGradGradGradGradGradGradGradGradGradGradGrad

 Leave Link  103 at Fri Mar  6 16:27:54 2026, MaxMem=  2415919104 cpu:               0.2 elap:               0.2
 (Enter /prod/precompiled/gaussian/16c2/g16/l202.exe)
                          Input orientation:                          
 ---------------------------------------------------------------------
 Center     Atomic      Atomic             Coordinates (Angstroms)
 Number     Number       Type             X           Y           Z
 ---------------------------------------------------------------------
      1          6           0       -0.158860   -1.334434   -0.434930
      2          6           0        0.015416    0.006251   -0.016820
      3         17           0        0.600813    0.481616    1.549628
      4          6           0       -0.304229    1.073028   -0.870584
      5          6           0       -0.801856    0.843267   -2.147102
      6          6           0       -0.978171   -0.464691   -2.583975
      7          6           0       -0.658777   -1.532936   -1.741552
      8          7           0        0.035017   -2.490161    0.342682
      9          7           0        0.629927   -2.390045    1.429197
     10          6           0        2.031055   -2.312571    1.424971
     11          6           0        2.834748   -2.509656    0.290105
     12         17           0        2.175297   -2.861715   -1.271138
     13          6           0        4.227595   -2.385269    0.375875
     14          6           0        4.834109   -2.049350    1.583595
     15          6           0        4.051967   -1.832420    2.713659
     16          6           0        2.663832   -1.963844    2.633497
     17          1           0       -0.159504    2.096196   -0.528811
     18          1           0       -1.049855    1.683585   -2.792513
     19          1           0       -1.369129   -0.651208   -3.583364
     20          1           0       -0.797541   -2.550071   -2.107300
     21          1           0        4.837304   -2.526503   -0.512932
     22          1           0        5.917069   -1.944230    1.636387
     23          1           0        4.521908   -1.549486    3.654305
     24          1           0        2.057979   -1.761650    3.515699
 ---------------------------------------------------------------------
                    Distance matrix (angstroms):
                    1          2          3          4          5
     1  C    0.000000
     2  C    1.415141   0.000000
     3  Cl   2.795284   1.738512   0.000000
     4  C    2.450878   1.403246   2.650716   0.000000
     5  C    2.843828   2.430356   3.970401   1.389216   0.000000
     6  C    2.458886   2.792720   4.524971   2.398851   1.390215
     7  C    1.413004   2.407973   4.059169   2.770440   2.414805
     8  N    1.406405   2.522241   3.257040   3.779341   4.243951
     9  N    2.282864   2.865453   2.874333   4.260812   5.029336
    10  C    3.035080   3.393891   3.141435   4.710139   5.544763
    11  C    3.296742   3.791124   3.940124   4.902652   5.514250
    12  Cl   2.912064   3.803107   4.649041   4.668050   4.832974
    13  C    4.582864   4.859632   4.769724   5.835315   6.487236
    14  C    5.432797   5.477830   4.932316   6.494210   7.351832
    15  C    5.281351   5.208644   4.315113   6.345461   7.371967
    16  C    4.216514   4.233150   3.378031   5.505503   6.537965
    17  H    3.431915   2.158843   2.739500   1.088406   2.145067
    18  H    3.931985   3.413608   4.798294   2.150011   1.088207
    19  H    3.441538   3.881939   5.613517   3.386174   2.148977
    20  H    2.163910   3.400850   4.951731   3.860008   3.393573
    21  H    5.136999   5.469147   5.590240   6.286485   6.769489
    22  H    6.448187   6.431716   5.844214   7.354815   8.199322
    23  H    6.219138   6.017138   4.891833   7.116446   8.229462
    24  H    4.550205   4.447047   3.319791   5.731920   6.857956
                    6          7          8          9         10
     6  C    0.000000
     7  C    1.397440   0.000000
     8  N    3.700595   2.396176   0.000000
     9  N    4.732708   3.528320   1.242762   0.000000
    10  C    5.342449   4.227280   2.277511   1.403275   0.000000
    11  C    5.194283   4.157684   2.800293   2.484568   1.404523
    12  Cl   4.172964   3.165268   2.706154   3.146817   2.755244
    13  C    6.288826   5.393199   4.194021   3.748696   2.435297
    14  C    7.325462   6.441668   4.976491   4.220789   2.819850
    15  C    7.432221   6.490740   4.710631   3.697452   2.444452
    16  C    6.537099   5.510578   3.526402   2.401823   1.408031
[...]
 Alpha  occ. eigenvalues --   -0.86619  -0.84306  -0.83359  -0.78108  -0.73505
 Alpha  occ. eigenvalues --   -0.71958  -0.70741  -0.66814  -0.64926  -0.60222
 Alpha  occ. eigenvalues --   -0.58910  -0.58451  -0.57893  -0.54903  -0.53720
 Alpha  occ. eigenvalues --   -0.52843  -0.52390  -0.51960  -0.51679  -0.48310
 Alpha  occ. eigenvalues --   -0.48060  -0.46709  -0.46167  -0.45055  -0.44597
 Alpha  occ. eigenvalues --   -0.43468  -0.41878  -0.40323  -0.39314  -0.35257
 Alpha  occ. eigenvalues --   -0.34556  -0.33772  -0.32570  -0.28864
 Alpha virt. eigenvalues --   -0.02129   0.03709   0.04876   0.05128   0.08386
 Alpha virt. eigenvalues --    0.10479   0.11691   0.15308   0.16451   0.17942
 Alpha virt. eigenvalues --    0.18457   0.21106   0.21313   0.21600   0.21966
 Alpha virt. eigenvalues --    0.22592   0.22789   0.25218   0.31098   0.32750
 Alpha virt. eigenvalues --    0.33325   0.34669   0.35330   0.36238   0.36375
 Alpha virt. eigenvalues --    0.37540   0.38822   0.39282   0.41341   0.45052
 Alpha virt. eigenvalues --    0.45610   0.46787   0.47573   0.49989   0.50476
 Alpha virt. eigenvalues --    0.50921   0.51544   0.53067   0.53548   0.54351
 Alpha virt. eigenvalues --    0.54626   0.55563   0.56134   0.57132   0.57999
 Alpha virt. eigenvalues --    0.58964   0.60196   0.60496   0.61089   0.63287
 Alpha virt. eigenvalues --    0.63427   0.65307   0.67033   0.67828   0.68155
 Alpha virt. eigenvalues --    0.68312   0.69789   0.70408   0.71922   0.72277
 Alpha virt. eigenvalues --    0.73572   0.73907   0.74206   0.74907   0.75573
 Alpha virt. eigenvalues --    0.76096   0.77888   0.78258   0.78908   0.79167
 Alpha virt. eigenvalues --    0.80097   0.80485   0.81026   0.81973   0.82667
 Alpha virt. eigenvalues --    0.84707   0.86406   0.86702   0.87058   0.88042
 Alpha virt. eigenvalues --    0.88304   0.88899   0.89689   0.91105   0.91304
 Alpha virt. eigenvalues --    0.92878   0.93643   0.94977   0.96904   1.00204
 Alpha virt. eigenvalues --    1.00422   1.02555   1.04037   1.06383   1.08355
 Alpha virt. eigenvalues --    1.10165   1.11276   1.12703   1.13491   1.19338
 Alpha virt. eigenvalues --    1.21398   1.24610   1.25284   1.26084   1.27665
 Alpha virt. eigenvalues --    1.29843   1.30883   1.31040   1.32954   1.33496
 Alpha virt. eigenvalues --    1.34281   1.35280   1.35717   1.35941   1.37548
 Alpha virt. eigenvalues --    1.39451   1.43667   1.44573   1.47851   1.48439
 Alpha virt. eigenvalues --    1.56399   1.57731   1.58395   1.59713   1.62058
 Alpha virt. eigenvalues --    1.69847   1.73883   1.74441   1.76976   1.77448
 Alpha virt. eigenvalues --    1.78506   1.78819   1.81875   1.82879   1.83554
 Alpha virt. eigenvalues --    1.83886   1.84526   1.85225   1.86093   1.86941
 Alpha virt. eigenvalues --    1.87327   1.88057   1.90412   1.91356   1.92514
 Alpha virt. eigenvalues --    1.97683   1.98299   2.00770   2.01336   2.02160
 Alpha virt. eigenvalues --    2.02901   2.03656   2.04232   2.07602   2.08805
 Alpha virt. eigenvalues --    2.10373   2.13979   2.16851   2.17347   2.20431
 Alpha virt. eigenvalues --    2.21914   2.22560   2.24497   2.28662   2.30115
 Alpha virt. eigenvalues --    2.31429   2.31820   2.32476   2.34209   2.34734
 Alpha virt. eigenvalues --    2.36056   2.38165   2.38991   2.39719   2.41406
 Alpha virt. eigenvalues --    2.44766   2.47596   2.52617   2.57093   2.57570
 Alpha virt. eigenvalues --    2.61706   2.63378   2.68316   2.68528   2.69965
 Alpha virt. eigenvalues --    2.70691   2.72190   2.77821   2.79099   2.80520
 Alpha virt. eigenvalues --    2.82173   2.88735   2.89699   2.90160   2.91352
 Alpha virt. eigenvalues --    2.91963   2.96738   3.04332   3.08184   3.11188
 Alpha virt. eigenvalues --    3.13413   3.16714   3.24160   3.31373   3.43223
 Alpha virt. eigenvalues --    3.59488   3.67032   3.71644
          Condensed to atoms (all electrons):
               1          2          3          4          5          6
     1  C    5.251062   0.241661  -0.072432   0.077529  -0.142752   0.101182
     2  C    0.241661   5.209748   0.259896   0.356853   0.085911  -0.153169
     3  Cl  -0.072432   0.259896  16.935134  -0.050113   0.002691   0.000605
     4  C    0.077529   0.356853  -0.050113   4.974919   0.306962   0.078180
     5  C   -0.142752   0.085911   0.002691   0.306962   5.065976   0.293800
     6  C    0.101182  -0.153169   0.000605   0.078180   0.293800   5.053671
     7  C    0.322922   0.074170   0.002392  -0.114112   0.069082   0.303397
     8  N    0.297183  -0.082232   0.002252   0.004639  -0.000100   0.006840
     9  N   -0.037110  -0.002052  -0.000275  -0.000265   0.000025  -0.000157
    10  C   -0.016346   0.001053   0.002225  -0.000055  -0.000042  -0.000000
    11  C   -0.000022  -0.000664   0.001059   0.000143   0.000022   0.000132
    12  Cl  -0.029349   0.003115   0.000113  -0.001679   0.002176  -0.002873
    13  C    0.000040   0.000102  -0.000050  -0.000001  -0.000001  -0.000005
    14  C   -0.000004  -0.000000   0.000001  -0.000000  -0.000000   0.000000
    15  C    0.000034   0.000004  -0.000003   0.000000   0.000000   0.000000
    16  C    0.000077  -0.000150  -0.000181  -0.000003   0.000000  -0.000002
    17  H    0.017001  -0.065714   0.001511   0.441194  -0.060093   0.012490
    18  H   -0.001703   0.013992  -0.000107  -0.062153   0.446345  -0.064820
    19  H    0.013957  -0.001472   0.000007   0.012384  -0.064620   0.444628
    20  H   -0.068304   0.017306  -0.000087  -0.002357   0.012931  -0.065006
    21  H    0.000029  -0.000004  -0.000001   0.000001  -0.000000   0.000000
    22  H    0.000000   0.000000   0.000000   0.000000   0.000000  -0.000000
    23  H    0.000000  -0.000000   0.000000  -0.000000   0.000000  -0.000000
    24  H    0.000158  -0.000012   0.000010   0.000000   0.000000   0.000000
               7          8          9         10         11         12
     1  C    0.322922   0.297183  -0.037110  -0.016346  -0.000022  -0.029349
     2  C    0.074170  -0.082232  -0.002052   0.001053  -0.000664   0.003115
     3  Cl   0.002392   0.002252  -0.000275   0.002225   0.001059   0.000113
     4  C   -0.114112   0.004639  -0.000265  -0.000055   0.000143  -0.001679
     5  C    0.069082  -0.000100   0.000025  -0.000042   0.000022   0.002176
     6  C    0.303397   0.006840  -0.000157  -0.000000   0.000132  -0.002873
     7  C    5.016824  -0.065402  -0.003043   0.001802  -0.000131   0.008695
     8  N   -0.065402   6.634462   0.335795  -0.047961  -0.005789  -0.002710
     9  N   -0.003043   0.335795   6.600681   0.333011  -0.062497  -0.000858
    10  C    0.001802  -0.047961   0.333011   5.260357   0.129272  -0.048640
    11  C   -0.000131  -0.005789  -0.062497   0.129272   5.377615   0.259652
    12  Cl   0.008695  -0.002710  -0.000858  -0.048640   0.259652  16.919130
    13  C    0.000025  -0.000303   0.002445   0.084234   0.342382  -0.068252
    14  C    0.000002   0.000023  -0.000523  -0.138544   0.085882   0.003105
    15  C    0.000001  -0.000340   0.010178   0.079142  -0.139266   0.000623
    16  C   -0.000138   0.008829  -0.089254   0.371102   0.019749   0.001823
    17  H   -0.001960  -0.000079  -0.000000   0.000005  -0.000004  -0.000012
    18  H    0.012602   0.000007  -0.000000   0.000000   0.000000  -0.000020
    19  H   -0.061657  -0.000104  -0.000000   0.000004  -0.000000  -0.000064
    20  H    0.449534  -0.006168   0.001228   0.000603  -0.000229   0.000230
    21  H   -0.000005   0.000006  -0.000040   0.016475  -0.065028   0.002479
    22  H    0.000000  -0.000000   0.000008  -0.001475   0.013276  -0.000141
    23  H   -0.000000   0.000003  -0.000147   0.012558  -0.001859   0.000007
    24  H   -0.000014  -0.000370   0.012269  -0.060012   0.021885  -0.000057
              13         14         15         16         17         18
     1  C    0.000040  -0.000004   0.000034   0.000077   0.017001  -0.001703
     2  C    0.000102  -0.000000   0.000004  -0.000150  -0.065714   0.013992
     3  Cl  -0.000050   0.000001  -0.000003  -0.000181   0.001511  -0.000107
     4  C   -0.000001  -0.000000   0.000000  -0.000003   0.441194  -0.062153
     5  C   -0.000001  -0.000000   0.000000   0.000000  -0.060093   0.446345
     6  C   -0.000005   0.000000   0.000000  -0.000002   0.012490  -0.064820
     7  C    0.000025   0.000002   0.000001  -0.000138  -0.001960   0.012602
     8  N   -0.000303   0.000023  -0.000340   0.008829  -0.000079   0.000007
     9  N    0.002445  -0.000523   0.010178  -0.089254  -0.000000  -0.000000
    10  C    0.084234  -0.138544   0.079142   0.371102   0.000005   0.000000
    11  C    0.342382   0.085882  -0.139266   0.019749  -0.000004   0.000000
    12  Cl  -0.068252   0.003105   0.000623   0.001823  -0.000012  -0.000020
    13  C    4.970296   0.310652   0.069793  -0.099512  -0.000000  -0.000000
    14  C    0.310652   5.061127   0.251346   0.085614   0.000000  -0.000000
    15  C    0.069793   0.251346   5.151527   0.250050  -0.000000   0.000000
    16  C   -0.099512   0.085614   0.250050   5.064850   0.000000  -0.000000
    17  H   -0.000000   0.000000  -0.000000   0.000000   0.644598  -0.011325
    18  H   -0.000000  -0.000000   0.000000  -0.000000  -0.011325   0.649481
    19  H   -0.000000   0.000000  -0.000000   0.000000  -0.000189  -0.010791
    20  H    0.000016   0.000000  -0.000001  -0.000069   0.000019  -0.000201
    21  H    0.440839  -0.057059   0.013452  -0.002541  -0.000000   0.000000
    22  H   -0.058551   0.443730  -0.063098   0.011751  -0.000000  -0.000000
    23  H    0.012644  -0.065952   0.451508  -0.061972   0.000000   0.000000
    24  H   -0.002907   0.012861  -0.070816   0.436072  -0.000000   0.000000
              19         20         21         22         23         24
     1  C    0.013957  -0.068304   0.000029   0.000000   0.000000   0.000158
     2  C   -0.001472   0.017306  -0.000004   0.000000  -0.000000  -0.000012
     3  Cl   0.000007  -0.000087  -0.000001   0.000000   0.000000   0.000010
     4  C    0.012384  -0.002357   0.000001   0.000000  -0.000000   0.000000
     5  C   -0.064620   0.012931  -0.000000   0.000000   0.000000   0.000000
     6  C    0.444628  -0.065006   0.000000  -0.000000  -0.000000   0.000000
     7  C   -0.061657   0.449534  -0.000005   0.000000  -0.000000  -0.000014
     8  N   -0.000104  -0.006168   0.000006  -0.000000   0.000003  -0.000370
     9  N   -0.000000   0.001228  -0.000040   0.000008  -0.000147   0.012269
    10  C    0.000004   0.000603   0.016475  -0.001475   0.012558  -0.060012
    11  C   -0.000000  -0.000229  -0.065028   0.013276  -0.001859   0.021885
    12  Cl  -0.000064   0.000230   0.002479  -0.000141   0.000007  -0.000057
    13  C   -0.000000   0.000016   0.440839  -0.058551   0.012644  -0.002907
    14  C    0.000000   0.000000  -0.057059   0.443730  -0.065952   0.012861
    15  C   -0.000000  -0.000001   0.013452  -0.063098   0.451508  -0.070816
    16  C    0.000000  -0.000069  -0.002541   0.011751  -0.061972   0.436072
    17  H   -0.000189   0.000019  -0.000000  -0.000000   0.000000  -0.000000
    18  H   -0.010791  -0.000201   0.000000  -0.000000   0.000000   0.000000
    19  H    0.650369  -0.010894  -0.000000  -0.000000   0.000000  -0.000000
    20  H   -0.010894   0.653843  -0.000001   0.000000   0.000000  -0.000014
    21  H   -0.000000  -0.000001   0.635030  -0.011306  -0.000203   0.000020
    22  H   -0.000000   0.000000  -0.011306   0.637234  -0.010022  -0.000193
    23  H    0.000000   0.000000  -0.000203  -0.010022   0.638347  -0.010697
    24  H   -0.000000  -0.000014   0.000020  -0.000193  -0.010697   0.624401
 Mulliken charges:
               1
     1  C    0.045189
     2  C    0.041659
     3  Cl  -0.084647
     4  C   -0.022067
     5  C   -0.018312
     6  C   -0.008894
     7  C   -0.014987
     8  N   -0.078480
     9  N   -0.099417
    10  C    0.021234
    11  C    0.024422
    12  Cl  -0.046492
    13  C   -0.003885
    14  C    0.007741
    15  C   -0.004134
    16  C    0.003904
    17  H    0.022559
    18  H    0.028694
    19  H    0.028444
    20  H    0.017623
    21  H    0.027857
    22  H    0.038788
    23  H    0.035785
    24  H    0.037416
 Sum of Mulliken charges =  -0.00000
 Mulliken charges with hydrogens summed into heavy atoms:
               1
     1  C    0.045189
     2  C    0.041659
     3  Cl  -0.084647
     4  C    0.000492
     5  C    0.010382
     6  C    0.019549
     7  C    0.002636
     8  N   -0.078480
     9  N   -0.099417
    10  C    0.021234
    11  C    0.024422
    12  Cl  -0.046492
    13  C    0.023972
    14  C    0.046529
    15  C    0.031651
    16  C    0.041320
 APT charges:
               1
     1  C   -0.185505
     2  C   -0.264406
     3  Cl   0.007447
     4  C   -0.498011
     5  C   -0.497234
     6  C   -0.465011
     7  C   -0.562098
     8  N   -0.259812
     9  N    0.193401
    10  C   -0.902275
    11  C   -0.571797
    12  Cl   0.024301
    13  C   -0.450976
    14  C   -0.519203
    15  C   -0.612240
    16  C   -0.293725
    17  H    0.475320
    18  H    0.717552
    19  H    0.731736
    20  H    0.499805
    21  H    0.593031
    22  H    1.240864
    23  H    1.171995
    24  H    0.426839
 Sum of APT charges =  -0.00000
 APT charges with hydrogens summed into heavy atoms:
               1
     1  C   -0.185505
     2  C   -0.264406
     3  Cl   0.007447
     4  C   -0.022691
     5  C    0.220318
     6  C    0.266726
     7  C   -0.062293
     8  N   -0.259812
     9  N    0.193401
    10  C   -0.902275
    11  C   -0.571797
    12  Cl   0.024301
    13  C    0.142055
    14  C    0.721662
    15  C    0.559755
    16  C    0.133114
 Electronic spatial extent (au):  <R**2>=           5202.4265
 Charge=             -0.0000 electrons
 Dipole moment (field-independent basis, Debye):
    X=              2.8748    Y=             -1.3331    Z=             -1.5490  Tot=              3.5272
 Quadrupole moment (field-independent basis, Debye-Ang):
   XX=            -90.6500   YY=            -98.5441   ZZ=            -98.2356
   XY=             -8.7586   XZ=              9.0035   YZ=             -3.7056
 Traceless Quadrupole moment (field-independent basis, Debye-Ang):
   XX=              5.1599   YY=             -2.7342   ZZ=             -2.4257
   XY=             -8.7586   XZ=              9.0035   YZ=             -3.7056
 Octapole moment (field-independent basis, Debye-Ang**2):
  XXX=           -315.4526  YYY=            272.6215  ZZZ=            -68.1981  XYY=           -121.9519
  XXY=             44.3632  XXZ=              7.0890  XZZ=           -125.8854  YZZ=             79.8628
  YYZ=            -15.1176  XYZ=            -27.3360
 Hexadecapole moment (field-independent basis, Debye-Ang**3):
 XXXX=          -2954.4168 YYYY=          -1877.1761 ZZZZ=          -1619.1912 XXXY=            627.7884
 XXXZ=           -475.2849 YYYX=            885.5258 YYYZ=            335.4863 ZZZX=           -500.6386
 ZZZY=            311.4762 XXYY=           -790.5600 XXZZ=           -804.6848 YYZZ=           -526.2205
 XXYZ=             15.1852 YYXZ=           -109.3669 ZZXY=            226.7106
 N-N= 1.253420865642D+03 E-N=-6.017361116312D+03  KE= 1.483225744275D+03
  Exact polarizability:       0.000       0.000       0.000       0.000       0.000       0.000
 Approx polarizability:     179.093     -14.358     164.101      24.103     -28.044     212.729
 No NMR shielding tensors so no spin-rotation constants.
 Leave Link  601 at Fri Mar  6 17:20:24 2026, MaxMem=  2415919104 cpu:               1.0 elap:               0.4
 (Enter /prod/precompiled/gaussian/16c2/g16/l716.exe)
 Dipole        = 1.13103724D+00-5.24491891D-01-6.09420809D-01
 Polarizability= 0.00000000D+00 0.00000000D+00 0.00000000D+00
                 0.00000000D+00 0.00000000D+00 0.00000000D+00
 -------------------------------------------------------------------
 Center     Atomic                   Forces (Hartrees/Bohr)
 Number     Number              X              Y              Z
 -------------------------------------------------------------------
      1        6           0.000005541    0.000010961    0.000000466
      2        6          -0.000001470   -0.000004734    0.000001957
      3       17           0.000005406    0.000003949   -0.000000094
      4        6           0.000004029    0.000003805    0.000000950
      5        6          -0.000007907   -0.000012903   -0.000007341
      6        6           0.000002339    0.000004350    0.000004138
      7        6          -0.000004332   -0.000006319   -0.000005920
      8        7           0.000000009    0.000004769    0.000012955
      9        7          -0.000007703    0.000003505    0.000002700
     10        6           0.000001905    0.000001055   -0.000006143
     11        6           0.000003816   -0.000003307   -0.000012149
     12       17           0.000004410   -0.000003157    0.000010127
     13        6          -0.000011803    0.000004045   -0.000009866
     14        6           0.000003790   -0.000001406    0.000005374
     15        6           0.000001756    0.000000664    0.000001596
     16        6           0.000007770   -0.000002633    0.000004720
     17        1           0.000000007   -0.000008050   -0.000001001
     18        1          -0.000000526   -0.000003144   -0.000002235
     19        1          -0.000004018   -0.000002346   -0.000002518
     20        1          -0.000001223    0.000004433    0.000001287
     21        1           0.000000291    0.000003904   -0.000000929
     22        1          -0.000003316    0.000003801    0.000001283
     23        1           0.000000903   -0.000001325    0.000001242
     24        1           0.000000325    0.000000083   -0.000000599
 -------------------------------------------------------------------
 Cartesian Forces:  Max     0.000012955 RMS     0.000005089
 Leave Link  716 at Fri Mar  6 17:20:24 2026, MaxMem=  2415919104 cpu:               0.1 elap:               0.1
 (Enter /prod/precompiled/gaussian/16c2/g16/l9999.exe)
 Unable to Open any file for archive entry.
 1\1\GINC-AMD21\FTS\RwB97XD\def2SVP\C12H8Cl2N2\SVELA\06-Mar-2026\0\\#p 
 nosymm scf=(maxconventionalcycles=200,xqc) wB97XD def2SVP opt=(TS,NoEi
 genTest,RecalcFC=30,Cartesian,SkipDihedral,MaxCycles=300)\\Title Card\
 \0,1\C,-0.2996859491,-0.7760721185,-0.1279358319\C,-0.2223832598,0.612
 492172,-0.2817975953\Cl,0.2384630056,1.5936515351,1.0790811325\C,-0.45
 46000339,1.1992153156,-1.5215457095\C,-0.7845228178,0.400850838,-2.614
 8003217\C,-0.8931875001,-0.9811836284,-2.4606096246\C,-0.6687569497,-1
 .566866516,-1.2195821455\N,-0.2431933275,-1.3562422318,1.1592218665\N,
 0.7074072636,-1.8295046934,1.7784975002\C,2.1138968225,-1.9628755469,1
 .4749952984\C,2.9834256809,-1.6107682973,0.4118047894\Cl,2.5339036525,
 -0.8028459907,-1.0569684138\C,4.3463433397,-1.9162508964,0.4950237921\
 C,4.884222211,-2.5642727371,1.5997485505\C,4.0532779654,-2.9212518715,
 2.657089267\C,2.7038790273,-2.6170011929,2.577235774\H,-0.3656924773,2
 .2819724276,-1.6212103129\H,-0.9644159121,0.8637992902,-3.5866715924\H
 ,-1.1590882955,-1.6092861159,-3.3129533444\H,-0.7623179091,-2.64533400
 33,-1.0799890928\H,4.9863938152,-1.6295923051,-0.3402349485\H,5.953093
 8919,-2.785173635,1.6269734857\H,4.4504935037,-3.4291923787,3.53718694
 93\H,2.0191572525,-2.8745644197,3.3860155277\\Version=ES64L-G16RevC.02
 \HF=-1491.004421\RMSD=8.866e-09\RMSF=5.089e-06\Dipole=1.1310372,-0.524
 4919,-0.6094208\Polar=0.,0.,0.,0.,0.,0.\Quadrupole=3.8362715,-2.032824
 3,-1.8034471,-6.5117847,6.6938525,-2.7549937\PG=C01 [X(C12H8Cl2N2)]\\@
 The archive entry for this job was punched.


 ERROR IS THE FORCE THAT WELDS MEN TOGETHER....
 TRUTH IS COMMUNICATED TO MEN ONLY BY DEEDS OF TRUTH.
           TOLSTOI,MY RELIGION
 Job cpu time:       0 days  7 hours 34 minutes 41.2 seconds.
 Elapsed time:       0 days  0 hours 54 minutes 40.7 seconds.
 File lengths (MBytes):  RWF=    245 Int=      0 D2E=      0 Chk=      7 Scr=      1
 Normal termination of Gaussian 16 at Fri Mar  6 17:20:24 2026.
