 Entering Gaussian System, Link 0=g16
 Initial command:
 /prod/precompiled/gaussian/16c2/g16/l1.exe "/scratch/ucsscms/svela/2076365/Gau-1307102.inp" -scrdir="/scratch/ucsscms/svela/2076365/"
 Entering Link 1 = /prod/precompiled/gaussian/16c2/g16/l1.exe PID=   1307103.
  
 Copyright (c) 1988-2021, Gaussian, Inc.  All Rights Reserved.
  
 This is part of the Gaussian(R) 16 program.  It is based on
 the Gaussian(R) 09 system (copyright 2009, Gaussian, Inc.),
 the Gaussian(R) 03 system (copyright 2003, Gaussian, Inc.),
 the Gaussian(R) 98 system (copyright 1998, Gaussian, Inc.),
 the Gaussian(R) 94 system (copyright 1995, Gaussian, Inc.),
 the Gaussian 92(TM) system (copyright 1992, Gaussian, Inc.),
 the Gaussian 90(TM) system (copyright 1990, Gaussian, Inc.),
 the Gaussian 88(TM) system (copyright 1988, Gaussian, Inc.),
 the Gaussian 86(TM) system (copyright 1986, Carnegie Mellon
 University), and the Gaussian 82(TM) system (copyright 1983,
 Carnegie Mellon University). Gaussian is a federally registered
 trademark of Gaussian, Inc.
  
 This software contains proprietary and confidential information,
 including trade secrets, belonging to Gaussian, Inc.
  
 This software is provided under written license and may be
 used, copied, transmitted, or stored only in accord with that
 written license.
  
 The following legend is applicable only to US Government
 contracts under FAR:
  
                    RESTRICTED RIGHTS LEGEND
  
 Use, reproduction and disclosure by the US Government is
 subject to restrictions as set forth in subparagraphs (a)
 and (c) of the Commercial Computer Software - Restricted
 Rights clause in FAR 52.227-19.
  
 Gaussian, Inc.
 340 Quinnipiac St., Bldg. 40, Wallingford CT 06492
  
  
 ---------------------------------------------------------------
 Warning -- This program may not be used in any manner that
 competes with the business of Gaussian, Inc. or will provide
 assistance to any competitor of Gaussian, Inc.  The licensee
 of this program is prohibited from giving any competitor of
 Gaussian, Inc. access to this program.  By using this program,
 the user acknowledges that Gaussian, Inc. is engaged in the
 business of creating and licensing software in the field of
 computational chemistry and represents and warrants to the
 licensee that it is not a competitor of Gaussian, Inc. and that
 it will not use this program in any manner prohibited above.
 ---------------------------------------------------------------
  

 Cite this work as:
 Gaussian 16, Revision C.02,
 M. J. Frisch, G. W. Trucks, H. B. Schlegel, G. E. Scuseria, 
 M. A. Robb, J. R. Cheeseman, G. Scalmani, V. Barone, 
 G. A. Petersson, H. Nakatsuji, X. Li, M. Caricato, A. V. Marenich, 
 J. Bloino, B. G. Janesko, R. Gomperts, B. Mennucci, H. P. Hratchian, 
 J. V. Ortiz, A. F. Izmaylov, J. L. Sonnenberg, D. Williams-Young, 
 F. Ding, F. Lipparini, F. Egidi, J. Goings, B. Peng, A. Petrone, 
 T. Henderson, D. Ranasinghe, V. G. Zakrzewski, J. Gao, N. Rega, 
 G. Zheng, W. Liang, M. Hada, M. Ehara, K. Toyota, R. Fukuda, 
 J. Hasegawa, M. Ishida, T. Nakajima, Y. Honda, O. Kitao, H. Nakai, 
 T. Vreven, K. Throssell, J. A. Montgomery, Jr., J. E. Peralta, 
 F. Ogliaro, M. J. Bearpark, J. J. Heyd, E. N. Brothers, K. N. Kudin, 
 V. N. Staroverov, T. A. Keith, R. Kobayashi, J. Normand, 
 K. Raghavachari, A. P. Rendell, J. C. Burant, S. S. Iyengar, 
 J. Tomasi, M. Cossi, J. M. Millam, M. Klene, C. Adamo, R. Cammi, 
 J. W. Ochterski, R. L. Martin, K. Morokuma, O. Farkas, 
 J. B. Foresman, and D. J. Fox, Gaussian, Inc., Wallingford CT, 2019.
 
 ******************************************
 Gaussian 16:  ES64L-G16RevC.02  7-Dec-2021
                 6-Mar-2026 
 ******************************************
 %nprocs=12
 Will use up to   12 processors via shared memory.
 %mem=18gb
 %chk=test_tsinv_l_b_ts_r1.chk
 ----------------------------------------------------------------------
 #p nosymm scf=(maxconventionalcycles=200,xqc) wB97XD def2SVP opt=(TS,N
 oEigenTest,RecalcFC=30,Cartesian,SkipDihedral,MaxCycles=300)
 ----------------------------------------------------------------------
 1/5=1,6=300,10=7,11=1,18=10,26=3,38=1,71=30,156=2/1,3;
 2/12=2,15=1,17=6,18=5,29=2,40=1/2;
 3/5=43,7=101,11=2,25=1,30=1,71=2,74=-58,140=1/1,2,3;
 4//1;
 5/5=2,8=3,13=1,38=5,85=200/2,8;
 8/6=4,10=90,11=11/1;
 11/6=1,8=1,9=11,15=111,16=1,31=1/1,2,10;
 10/6=1,31=1/2;
 6/7=2,8=2,9=2,10=2,28=1/1;
 7/7=1,10=1,25=1,30=1/1,2,3,16;
 1/5=1,6=300,10=7,11=1,18=10,26=3,71=30,156=2/3(3);
 2/15=1,29=1/2;
 7/7=1,9=1,25=1,30=1,44=-1/16;
 99/12=1/99;
 2/15=1,29=1/2;
 3/5=43,7=101,11=2,25=1,30=1,71=2,74=-58,140=1/1,2,3;
 4/5=5,16=3,69=1/1;
 5/5=2,8=3,13=1,38=5,85=200/2,8;
 8/6=4,10=90,11=11/1;
 11/6=1,8=1,9=11,15=111,16=1,31=1/1,2,10;
 10/6=1,31=1/2;
 7/7=1,10=1,25=1,30=1/1,2,3,16;
 1/5=1,6=300,11=1,18=10,26=3,71=30,156=2/3(-8);
 2/15=1,29=1/2;
 6/7=2,8=2,9=2,10=2,19=2,28=1/1;
 7/7=1,9=1,25=1,30=1,44=-1/16;
 99/9=1,12=1/99;
 Leave Link    1 at Fri Mar  6 16:25:19 2026, MaxMem=  2415919104 cpu:               0.0 elap:               0.1
 (Enter /prod/precompiled/gaussian/16c2/g16/l101.exe)
 ----------
 Title Card
 ----------
 Symbolic Z-matrix:
 Charge =  0 Multiplicity = 1
 C                     1.42769   0.        0. 
 C                     2.29491  -1.11749   0. 
 Cl                    1.775    -2.77393  -0.02262 
 C                     3.69049  -0.94941   0.03039 
 C                     4.25758   0.32015   0.0676 
 C                     3.43136   1.43528   0.0589 
 C                     2.0378    1.27426   0.01827 
 N                     0.        0.        0. 
 N                    -1.24459   0.00217   0. 
 C                    -1.84299  -1.27339   0.08634 
 C                    -1.57575  -2.21668   1.09233 
 Cl                   -0.39377  -1.94889   2.32835 
 C                    -2.30528  -3.41374   1.16364 
 C                    -3.31757  -3.68152   0.24284 
 C                    -3.61385  -2.75057  -0.74517 
 C                    -2.88694  -1.55468  -0.8162 
 H                     4.34114  -1.82088   0.03103 
 H                     5.33908   0.43089   0.10293 
 H                     3.86912   2.43128   0.08647 
 H                     1.41467   2.1675    0.00379 
 H                    -2.09683  -4.13255   1.95109 
 H                    -3.88176  -4.61      0.30902 
 H                    -4.41754  -2.9446   -1.45275 
 H                    -3.15409  -0.8207   -1.57376 
 
 ITRead=  0  0  0  0  0  0  0  0  0  0  0  0  0  0  0  0  0  0  0  0
 ITRead=  0  0  0  0
 MicOpt= -1 -1 -1 -1 -1 -1 -1 -1 -1 -1 -1 -1 -1 -1 -1 -1 -1 -1 -1 -1
 MicOpt= -1 -1 -1 -1
 NAtoms=     24 NQM=       24 NQMF=       0 NMMI=      0 NMMIF=      0
                NMic=       0 NMicF=      0.
                    Isotopes and Nuclear Properties:
 (Nuclear quadrupole moments (NQMom) in fm**2, nuclear magnetic moments (NMagM)
  in nuclear magnetons)

  Atom         1           2           3           4           5           6           7           8           9          10
 IAtWgt=          12          12          35          12          12          12          12          14          14          12
 AtmWgt=  12.0000000  12.0000000  34.9688527  12.0000000  12.0000000  12.0000000  12.0000000  14.0030740  14.0030740  12.0000000
 NucSpn=           0           0           3           0           0           0           0           2           2           0
 AtZEff=  -0.0000000  -0.0000000  -0.0000000  -0.0000000  -0.0000000  -0.0000000  -0.0000000  -0.0000000  -0.0000000  -0.0000000
 NQMom=    0.0000000   0.0000000  -8.1650000   0.0000000   0.0000000   0.0000000   0.0000000   2.0440000   2.0440000   0.0000000
 NMagM=    0.0000000   0.0000000   0.8218740   0.0000000   0.0000000   0.0000000   0.0000000   0.4037610   0.4037610   0.0000000
 AtZNuc=   6.0000000   6.0000000  17.0000000   6.0000000   6.0000000   6.0000000   6.0000000   7.0000000   7.0000000   6.0000000

  Atom        11          12          13          14          15          16          17          18          19          20
 IAtWgt=          12          35          12          12          12          12           1           1           1           1
 AtmWgt=  12.0000000  34.9688527  12.0000000  12.0000000  12.0000000  12.0000000   1.0078250   1.0078250   1.0078250   1.0078250
 NucSpn=           0           3           0           0           0           0           1           1           1           1
 AtZEff=  -0.0000000  -0.0000000  -0.0000000  -0.0000000  -0.0000000  -0.0000000  -0.0000000  -0.0000000  -0.0000000  -0.0000000
 NQMom=    0.0000000  -8.1650000   0.0000000   0.0000000   0.0000000   0.0000000   0.0000000   0.0000000   0.0000000   0.0000000
 NMagM=    0.0000000   0.8218740   0.0000000   0.0000000   0.0000000   0.0000000   2.7928460   2.7928460   2.7928460   2.7928460
 AtZNuc=   6.0000000  17.0000000   6.0000000   6.0000000   6.0000000   6.0000000   1.0000000   1.0000000   1.0000000   1.0000000

  Atom        21          22          23          24
 IAtWgt=           1           1           1           1
 AtmWgt=   1.0078250   1.0078250   1.0078250   1.0078250
 NucSpn=           1           1           1           1
 AtZEff=  -0.0000000  -0.0000000  -0.0000000  -0.0000000
 NQMom=    0.0000000   0.0000000   0.0000000   0.0000000
 NMagM=    2.7928460   2.7928460   2.7928460   2.7928460
 AtZNuc=   1.0000000   1.0000000   1.0000000   1.0000000
 Leave Link  101 at Fri Mar  6 16:25:19 2026, MaxMem=  2415919104 cpu:               0.1 elap:               0.1
 (Enter /prod/precompiled/gaussian/16c2/g16/l103.exe)

 GradGradGradGradGradGradGradGradGradGradGradGradGradGradGradGradGradGrad
 Berny optimization.
 Initialization pass.
 No Z-matrix variables, so optimization will use Cartesian coordinates.
 Trust Radius=3.00D-01 FncErr=1.00D-07 GrdErr=1.00D-06 EigMax=2.50D+02 EigMin=1.00D-04
 Number of steps in this run=    144 maximum allowed number of steps=    144.
 Search for a saddle point of order  1.
 Step   0 in ReCalcFC=30 IGetFC= 4 compute analytic Hessian.
 GradGradGradGradGradGradGradGradGradGradGradGradGradGradGradGradGradGrad

 Leave Link  103 at Fri Mar  6 16:25:20 2026, MaxMem=  2415919104 cpu:               0.1 elap:               0.1
 (Enter /prod/precompiled/gaussian/16c2/g16/l202.exe)
 ---------------------------------------------------------------------------------------------------
                            Z-MATRIX (ANGSTROMS AND DEGREES)
   CD    Cent   Atom    N1       Length/X        N2       Alpha/Y        N3        Beta/Z          J
 ---------------------------------------------------------------------------------------------------
      1      1  C        0   1.427693          0.000000          0.000000
      2      2  C        0   2.294907         -1.117494          0.000000
      3      3  Cl       0   1.775001         -2.773933         -0.022616
      4      4  C        0   3.690491         -0.949409          0.030387
      5      5  C        0   4.257584          0.320149          0.067602
      6      6  C        0   3.431361          1.435280          0.058902
      7      7  C        0   2.037804          1.274257          0.018271
      8      8  N        0   0.000000          0.000000          0.000000
      9      9  N        0  -1.244593          0.002172          0.000000
     10     10  C        0  -1.842987         -1.273388          0.086337
     11     11  C        0  -1.575751         -2.216679          1.092331
     12     12  Cl       0  -0.393772         -1.948894          2.328353
     13     13  C        0  -2.305279         -3.413742          1.163644
     14     14  C        0  -3.317574         -3.681515          0.242838
     15     15  C        0  -3.613851         -2.750569         -0.745167
     16     16  C        0  -2.886939         -1.554682         -0.816203
     17     17  H        0   4.341141         -1.820877          0.031026
     18     18  H        0   5.339076          0.430890          0.102927
     19     19  H        0   3.869124          2.431285          0.086472
     20     20  H        0   1.414669          2.167503          0.003786
     21     21  H        0  -2.096834         -4.132550          1.951089
     22     22  H        0  -3.881757         -4.609997          0.309016
     23     23  H        0  -4.417538         -2.944601         -1.452751
     24     24  H        0  -3.154090         -0.820697         -1.573755
 ---------------------------------------------------------------------------------------------------
                         Z-Matrix orientation:                         
 ---------------------------------------------------------------------
 Center     Atomic      Atomic             Coordinates (Angstroms)
 Number     Number       Type             X           Y           Z
 ---------------------------------------------------------------------
      1          6           0        1.427693    0.000000    0.000000
      2          6           0        2.294907   -1.117494    0.000000
      3         17           0        1.775001   -2.773933   -0.022616
      4          6           0        3.690491   -0.949409    0.030387
      5          6           0        4.257584    0.320149    0.067602
      6          6           0        3.431361    1.435280    0.058902
      7          6           0        2.037804    1.274257    0.018271
      8          7           0        0.000000    0.000000    0.000000
      9          7           0       -1.244593    0.002172    0.000000
     10          6           0       -1.842987   -1.273388    0.086337
     11          6           0       -1.575751   -2.216679    1.092331
     12         17           0       -0.393772   -1.948894    2.328353
     13          6           0       -2.305279   -3.413742    1.163644
     14          6           0       -3.317574   -3.681515    0.242838
     15          6           0       -3.613851   -2.750569   -0.745167
     16          6           0       -2.886939   -1.554682   -0.816203
     17          1           0        4.341141   -1.820877    0.031026
     18          1           0        5.339076    0.430890    0.102927
     19          1           0        3.869124    2.431285    0.086472
     20          1           0        1.414669    2.167503    0.003786
     21          1           0       -2.096834   -4.132550    1.951089
     22          1           0       -3.881757   -4.609997    0.309016
     23          1           0       -4.417538   -2.944601   -1.452751
     24          1           0       -3.154090   -0.820697   -1.573755
 ---------------------------------------------------------------------
                    Distance matrix (angstroms):
                    1          2          3          4          5
     1  C    0.000000
     2  C    1.414515   0.000000
     3  Cl   2.795682   1.736261   0.000000
     4  C    2.454090   1.405998   2.645902   0.000000
     5  C    2.848745   2.433822   3.967959   1.390955   0.000000
     6  C    2.465397   2.794933   4.524118   2.398896   1.387890
     7  C    1.412905   2.405599   4.056917   2.770598   2.416646
     8  N    1.427693   2.552526   3.293303   3.810777   4.270139
     9  N    2.672287   3.712373   4.101855   5.026080   5.511772
    10  C    3.510886   4.141730   3.918334   5.543237   6.305290
    11  C    3.889412   4.169339   3.575077   5.519692   6.443086
    12  Cl   3.540784   3.652595   3.303229   4.791745   5.647536
    13  C    5.190644   5.271483   4.297122   6.580765   7.629838
    14  C    6.010830   6.175202   5.179623   7.524793   8.568958
    15  C    5.791206   6.175405   5.437127   7.563007   8.488191
    16  C    4.658248   5.263920   4.883650   6.659253   7.439107
    17  H    3.435802   2.163974   2.737931   1.087567   2.142968
    18  H    3.936391   3.416878   4.794714   2.151353   1.087721
    19  H    3.446623   3.883229   5.611733   3.385875   2.146661
    20  H    2.167545   3.400888   4.954627   3.859432   3.391011
    21  H    5.771222   5.673156   4.553291   6.878562   7.984528
    22  H    7.038311   7.102411   5.956511   8.415253   9.519112
    23  H    6.704318   7.106738   6.357826   8.480603   9.392966
    24  H    4.913551   5.679468   5.524229   7.031225   7.676490
                    6          7          8          9         10
     6  C    0.000000
     7  C    1.403417   0.000000
     8  N    3.719911   2.403479   0.000000
     9  N    4.890993   3.520322   1.244595   0.000000
    10  C    5.929282   4.642808   2.241779   1.411589   0.000000
    11  C    6.282989   5.137900   2.930844   2.495226   1.404720
    12  Cl   5.588800   4.651639   3.061776   3.154645   2.753755
    13  C    7.592266   6.492425   4.280422   3.761328   2.440373
    14  C    8.471337   7.300012   4.961736   4.233884   2.828069
    15  C    8.234250   6.980205   4.602263   3.707592   2.451412
    16  C    7.044615   5.740413   3.379000   2.405677   1.408382
    17  H    3.380981   3.858157   4.707660   5.875789   6.208562
    18  H    2.156412   3.408347   5.357424   6.598416   7.381522
    19  H    1.088312   2.167279   4.570421   5.661993   6.808290
    20  H    2.146214   1.089218   2.588315   3.429336   4.739079
    21  H    8.071062   7.075633   5.028064   4.650698   3.422944
    22  H    9.491556   8.351657   6.034534   5.321863   3.916520
    23  H    9.114476   7.850739   5.504162   4.567443   3.433665
    24  H    7.150047   5.820579   3.619189   2.607680   2.163290
                   11         12         13         14         15
    11  C    0.000000
    12  Cl   1.731050   0.000000
    13  C    1.403658   2.675105   0.000000
    14  C    2.429265   3.987476   1.394391   0.000000
    15  C    2.795584   4.523065   2.407430   1.389458   0.000000
    16  C    2.408310   4.032309   2.777450   2.414629   1.401283
    17  H    6.024337   5.264361   6.927838   7.884336   8.046658
    18  H    7.470166   6.594046   8.622208   9.584834   9.539174
    19  H    7.229245   6.510321   8.570175   9.436069   9.139921
    20  H    5.417434   5.061501   6.806877   7.527435   7.073498
    21  H    2.163228   2.794835   1.086372   2.147501   3.388364
    22  H    3.414560   4.829620   2.155620   1.088467   2.154193
    23  H    3.883692   5.610604   3.395181   2.151275   1.088226
    24  H    3.398225   4.911072   3.864934   3.392789   2.149964
                   16         17         18         19         20
    16  C    0.000000
    17  H    7.282431   0.000000
    18  H    8.512028   2.464041   0.000000
    19  H    7.896021   4.278640   2.482460   0.000000
    20  H    5.747249   4.946934   4.292624   2.469973   0.000000
    21  H    3.863622   7.104787   8.918153   9.063850   7.470831
    22  H    3.404516   8.687492  10.510793  10.474031   8.606962
    23  H    2.163285   8.954262  10.440574   9.996906   7.891118
    24  H    1.088112   7.730082   8.747091   7.915635   5.682564
                   21         22         23         24
    21  H    0.000000
    22  H    2.471904   0.000000
    23  H    4.287542   2.482827   0.000000
    24  H    4.950827   4.293381   2.474250   0.000000
 Symmetry turned off by external request.
 Stoichiometry    C12H8Cl2N2
 Framework group  C1[X(C12H8Cl2N2)]
 Deg. of freedom    66
 Full point group                 C1      NOp   1
 Rotational constants (GHZ):           0.9193179           0.2749122           0.2507951
 Leave Link  202 at Fri Mar  6 16:25:20 2026, MaxMem=  2415919104 cpu:               0.1 elap:               0.1
 (Enter /prod/precompiled/gaussian/16c2/g16/l301.exe)
 Standard basis: def2SVP (5D, 7F)
 Ernie: Thresh=  0.10000D-02 Tol=  0.10000D-05 Strict=F.
   272 basis functions,   480 primitive gaussians,   288 cartesian basis functions
    64 alpha electrons       64 beta electrons
       nuclear repulsion energy      1229.8467503337 Hartrees.
 IExCor= 4639 DFT=T Ex+Corr=wB97XD ExCW=0 ScaHFX=  1.000000
 ScaDFX=  1.000000  1.000000  1.000000  1.000000 ScalE2=  1.000000  1.000000
 IRadAn=      5 IRanWt=     -1 IRanGd=            0 ICorTp=0 IEmpDi=121
 HFx  wShort=  0.000000 wLong=  0.200000 cFull=  0.222036 cShort=  0.000000 cLong=  0.777964
 DFx  wShort=  0.000000 wLong=  0.200000 cFull=  0.000000 cShort=  0.000000 cLong=  1.000000
 NAtoms=   24 NActive=   24 NUniq=   24 SFac= 1.00D+00 NAtFMM=   60 NAOKFM=F Big=F
 Integral buffers will be    131072 words long.
 Raffenetti 2 integral format.
 Two-electron integral symmetry is turned off.
 R6Disp:  Grimme-D2 Dispersion energy=       -0.0145823004 Hartrees.
 Nuclear repulsion after empirical dispersion term =     1229.8321680333 Hartrees.
 Leave Link  301 at Fri Mar  6 16:25:20 2026, MaxMem=  2415919104 cpu:               0.1 elap:               0.4
 (Enter /prod/precompiled/gaussian/16c2/g16/l302.exe)
 NPDir=0 NMtPBC=     1 NCelOv=     1 NCel=       1 NClECP=     1 NCelD=      1
         NCelK=      1 NCelE2=     1 NClLst=     1 CellRange=     0.0.
 One-electron integrals computed using PRISM.
   1 Symmetry operations used in ECPInt.
 ECPInt:  NShTT=    7750 NPrTT=   30142 LenC2=    7096 LenP2D=   19265.
 LDataN:  DoStor=T MaxTD1= 4 Len=   56
 NBasis=   272 RedAO= T EigKep=  2.30D-04  NBF=   272
 NBsUse=   272 1.00D-06 EigRej= -1.00D+00 NBFU=   272
 Precomputing XC quadrature grid using
 IXCGrd= 4 IRadAn=           5 IRanWt=          -1 IRanGd=           0 AccXCQ= 0.00D+00.
 Generated NRdTot=       0 NPtTot=           0 NUsed=           0 NTot=          32
 NSgBfM=   286   286   286   286   286 MxSgAt=    24 MxSgA2=    24.
 Leave Link  302 at Fri Mar  6 16:25:20 2026, MaxMem=  2415919104 cpu:               0.8 elap:               0.1
 (Enter /prod/precompiled/gaussian/16c2/g16/l303.exe)
 DipDrv:  MaxL=1.
 Leave Link  303 at Fri Mar  6 16:25:20 2026, MaxMem=  2415919104 cpu:               0.1 elap:               0.1
 (Enter /prod/precompiled/gaussian/16c2/g16/l401.exe)
 ExpMin= 1.22D-01 ExpMax= 1.04D+04 ExpMxC= 1.57D+03 IAcc=3 IRadAn=         5 AccDes= 0.00D+00
 Harris functional with IExCor= 4639 and IRadAn=       5 diagonalized for initial guess.
 HarFok:  IExCor= 4639 AccDes= 0.00D+00 IRadAn=         5 IDoV= 1 UseB2=F ITyADJ=14
 ICtDFT=  3500011 ScaDFX=  1.000000  1.000000  1.000000  1.000000
 FoFCou: FMM=F IPFlag=           0 FMFlag=      100000 FMFlg1=           0
         NFxFlg=           0 DoJE=T BraDBF=F KetDBF=T FulRan=T
         wScrn=  0.000000 ICntrl=       500 IOpCl=  0 I1Cent=   200000004 NGrid=           0
         NMat0=    1 NMatS0=      1 NMatT0=    0 NMatD0=    1 NMtDS0=    0 NMtDT0=    0
 Symmetry not used in FoFCou.
 Harris En= -1450.73538586857    
 JPrj=0 DoOrth=F DoCkMO=F.
 Leave Link  401 at Fri Mar  6 16:25:21 2026, MaxMem=  2415919104 cpu:               5.0 elap:               0.5
 (Enter /prod/precompiled/gaussian/16c2/g16/l502.exe)
 Two-electron integral symmetry not used.
 Closed shell SCF:
 Using DIIS extrapolation, IDIIS=  1040.
 NGot=  2415919104 LenX=  2415746906 LenY=  2415663521
 Requested convergence on RMS density matrix=1.00D-08 within 200 cycles.
 Requested convergence on MAX density matrix=1.00D-06.
 Requested convergence on             energy=1.00D-06.
 No special actions if energy rises.
 Fock matrices will be formed incrementally for  20 cycles.
 Integral accuracy reduced to 1.0D-05 until final iterations.

 Cycle   1  Pass 0  IDiag  1:
 FoFJK:  IHMeth= 1 ICntrl=       0 DoSepK=T KAlg= 0 I1Cent=           0 FoldK=F
 IRaf=         1 NMat=       1 IRICut=       1 DoRegI=T DoRafI=F ISym2E= 0 IDoP0=0 IntGTp=1.
 FoFCou: FMM=F IPFlag=           0 FMFlag=      100000 FMFlg1=           0
         NFxFlg=           0 DoJE=T BraDBF=F KetDBF=F FulRan=T
         wScrn=  0.000000 ICntrl=       500 IOpCl=  0 I1Cent=           0 NGrid=           0
         NMat0=    1 NMatS0=      1 NMatT0=    0 NMatD0=    1 NMtDS0=    0 NMtDT0=    0
 Symmetry not used in FoFCou.
 E= -1490.55529237294    
 DIIS: error= 3.91D-02 at cycle   1 NSaved=   1.
 NSaved= 1 IEnMin= 1 EnMin= -1490.55529237294     IErMin= 1 ErrMin= 3.91D-02
 ErrMax= 3.91D-02  0.00D+00 EMaxC= 1.00D-01 BMatC= 7.00D-01 BMatP= 7.00D-01
 IDIUse=3 WtCom= 6.09D-01 WtEn= 3.91D-01
 Coeff-Com:  0.100D+01
 Coeff-En:   0.100D+01
 Coeff:      0.100D+01
 Gap=     0.321 Goal=   None    Shift=    0.000
 GapD=    0.321 DampG=1.000 DampE=0.500 DampFc=0.5000 IDamp=-1.
 Damping current iteration by 5.00D-01
 RMSDP=6.53D-03 MaxDP=2.70D-01              OVMax= 2.08D-01

 Cycle   2  Pass 0  IDiag  1:
 RMSU=  3.20D-03    CP:  9.75D-01
 E= -1490.75524573916     Delta-E=       -0.199953366219 Rises=F Damp=T
 DIIS: error= 1.52D-02 at cycle   2 NSaved=   2.
 NSaved= 2 IEnMin= 2 EnMin= -1490.75524573916     IErMin= 2 ErrMin= 1.52D-02
 ErrMax= 1.52D-02  0.00D+00 EMaxC= 1.00D-01 BMatC= 9.11D-02 BMatP= 7.00D-01
 IDIUse=3 WtCom= 8.48D-01 WtEn= 1.52D-01
 Coeff-Com: -0.277D+00 0.128D+01
 Coeff-En:   0.000D+00 0.100D+01
 Coeff:     -0.235D+00 0.123D+01
 Gap=     0.353 Goal=   None    Shift=    0.000
 RMSDP=2.32D-03 MaxDP=9.23D-02 DE=-2.00D-01 OVMax= 1.72D-01

 Cycle   3  Pass 0  IDiag  1:
 RMSU=  2.12D-03    CP:  9.56D-01  1.25D+00
 E= -1490.92900979007     Delta-E=       -0.173764050906 Rises=F Damp=F
 DIIS: error= 7.03D-03 at cycle   3 NSaved=   3.
 NSaved= 3 IEnMin= 3 EnMin= -1490.92900979007     IErMin= 3 ErrMin= 7.03D-03
 ErrMax= 7.03D-03  0.00D+00 EMaxC= 1.00D-01 BMatC= 2.54D-02 BMatP= 9.11D-02
 IDIUse=3 WtCom= 9.30D-01 WtEn= 7.03D-02
 Coeff-Com: -0.188D+00 0.512D+00 0.675D+00
 Coeff-En:   0.000D+00 0.000D+00 0.100D+01
 Coeff:     -0.174D+00 0.476D+00 0.698D+00
 Gap=     0.245 Goal=   None    Shift=    0.000
 RMSDP=1.07D-03 MaxDP=2.61D-02 DE=-1.74D-01 OVMax= 5.05D-02

 Cycle   4  Pass 0  IDiag  1:
 RMSU=  7.90D-04    CP:  9.50D-01  1.41D+00  7.75D-01
 E= -1490.95460379470     Delta-E=       -0.025594004635 Rises=F Damp=F
 DIIS: error= 2.66D-03 at cycle   4 NSaved=   4.
 NSaved= 4 IEnMin= 4 EnMin= -1490.95460379470     IErMin= 4 ErrMin= 2.66D-03
 ErrMax= 2.66D-03  0.00D+00 EMaxC= 1.00D-01 BMatC= 2.65D-03 BMatP= 2.54D-02
 IDIUse=3 WtCom= 9.73D-01 WtEn= 2.66D-02
 Coeff-Com: -0.551D-01 0.115D+00 0.307D+00 0.633D+00
 Coeff-En:   0.000D+00 0.000D+00 0.000D+00 0.100D+01
 Coeff:     -0.537D-01 0.112D+00 0.298D+00 0.643D+00
 Gap=     0.229 Goal=   None    Shift=    0.000
 RMSDP=2.92D-04 MaxDP=8.03D-03 DE=-2.56D-02 OVMax= 1.60D-02

 Cycle   5  Pass 0  IDiag  1:
 RMSU=  1.54D-04    CP:  9.49D-01  1.42D+00  8.65D-01  8.11D-01
 E= -1490.95741757957     Delta-E=       -0.002813784867 Rises=F Damp=F
 DIIS: error= 6.51D-04 at cycle   5 NSaved=   5.
 NSaved= 5 IEnMin= 5 EnMin= -1490.95741757957     IErMin= 5 ErrMin= 6.51D-04
 ErrMax= 6.51D-04  0.00D+00 EMaxC= 1.00D-01 BMatC= 1.58D-04 BMatP= 2.65D-03
 IDIUse=3 WtCom= 9.93D-01 WtEn= 6.51D-03
 Coeff-Com: -0.993D-02 0.138D-01 0.815D-01 0.268D+00 0.646D+00
 Coeff-En:   0.000D+00 0.000D+00 0.000D+00 0.000D+00 0.100D+01
 Coeff:     -0.986D-02 0.137D-01 0.810D-01 0.266D+00 0.649D+00
 Gap=     0.230 Goal=   None    Shift=    0.000
 RMSDP=8.36D-05 MaxDP=2.63D-03 DE=-2.81D-03 OVMax= 5.73D-03

 Cycle   6  Pass 0  IDiag  1:
 RMSU=  6.82D-05    CP:  9.49D-01  1.42D+00  8.68D-01  8.66D-01  9.19D-01
 E= -1490.95764752268     Delta-E=       -0.000229943114 Rises=F Damp=F
 DIIS: error= 2.52D-04 at cycle   6 NSaved=   6.
 NSaved= 6 IEnMin= 6 EnMin= -1490.95764752268     IErMin= 6 ErrMin= 2.52D-04
 ErrMax= 2.52D-04  0.00D+00 EMaxC= 1.00D-01 BMatC= 2.67D-05 BMatP= 1.58D-04
 IDIUse=3 WtCom= 9.97D-01 WtEn= 2.52D-03
 Coeff-Com:  0.100D-01-0.230D-01-0.416D-01-0.500D-01 0.239D+00 0.866D+00
 Coeff-En:   0.000D+00 0.000D+00 0.000D+00 0.000D+00 0.000D+00 0.100D+01
 Coeff:      0.100D-01-0.230D-01-0.415D-01-0.499D-01 0.238D+00 0.866D+00
 Gap=     0.231 Goal=   None    Shift=    0.000
 RMSDP=6.43D-05 MaxDP=1.57D-03 DE=-2.30D-04 OVMax= 6.84D-03

 Cycle   7  Pass 0  IDiag  1:
 RMSU=  3.50D-05    CP:  9.48D-01  1.43D+00  8.76D-01  9.11D-01  1.12D+00
                    CP:  1.21D+00
 E= -1490.95772480482     Delta-E=       -0.000077282138 Rises=F Damp=F
 DIIS: error= 1.49D-04 at cycle   7 NSaved=   7.
 NSaved= 7 IEnMin= 7 EnMin= -1490.95772480482     IErMin= 7 ErrMin= 1.49D-04
 ErrMax= 1.49D-04  0.00D+00 EMaxC= 1.00D-01 BMatC= 7.09D-06 BMatP= 2.67D-05
 IDIUse=3 WtCom= 9.99D-01 WtEn= 1.49D-03
 Coeff-Com:  0.623D-02-0.125D-01-0.330D-01-0.702D-01 0.103D-01 0.424D+00
 Coeff-Com:  0.676D+00
 Coeff-En:   0.000D+00 0.000D+00 0.000D+00 0.000D+00 0.000D+00 0.000D+00
 Coeff-En:   0.100D+01
 Coeff:      0.622D-02-0.124D-01-0.329D-01-0.701D-01 0.103D-01 0.423D+00
 Coeff:      0.676D+00
 Gap=     0.231 Goal=   None    Shift=    0.000
 RMSDP=2.79D-05 MaxDP=7.31D-04 DE=-7.73D-05 OVMax= 4.07D-03

 Cycle   8  Pass 0  IDiag  1:
 RMSU=  1.78D-05    CP:  9.48D-01  1.43D+00  8.78D-01  9.18D-01  1.20D+00
                    CP:  1.42D+00  1.20D+00
 E= -1490.95774873782     Delta-E=       -0.000023932998 Rises=F Damp=F
 DIIS: error= 1.08D-04 at cycle   8 NSaved=   8.
 NSaved= 8 IEnMin= 8 EnMin= -1490.95774873782     IErMin= 8 ErrMin= 1.08D-04
 ErrMax= 1.08D-04  0.00D+00 EMaxC= 1.00D-01 BMatC= 1.63D-06 BMatP= 7.09D-06
 IDIUse=3 WtCom= 9.99D-01 WtEn= 1.08D-03
 Coeff-Com: -0.753D-04 0.716D-03-0.243D-02-0.134D-01-0.355D-01-0.180D-01
 Coeff-Com:  0.242D+00 0.826D+00
 Coeff-En:   0.000D+00 0.000D+00 0.000D+00 0.000D+00 0.000D+00 0.000D+00
 Coeff-En:   0.000D+00 0.100D+01
 Coeff:     -0.752D-04 0.715D-03-0.243D-02-0.134D-01-0.354D-01-0.180D-01
 Coeff:      0.242D+00 0.827D+00
 Gap=     0.231 Goal=   None    Shift=    0.000
 RMSDP=2.11D-05 MaxDP=7.37D-04 DE=-2.39D-05 OVMax= 3.62D-03

 Cycle   9  Pass 0  IDiag  1:
 RMSU=  9.17D-06    CP:  9.48D-01  1.43D+00  8.78D-01  9.20D-01  1.24D+00
                    CP:  1.56D+00  1.56D+00  1.49D+00
 E= -1490.95776097202     Delta-E=       -0.000012234203 Rises=F Damp=F
 DIIS: error= 8.61D-05 at cycle   9 NSaved=   9.
 NSaved= 9 IEnMin= 9 EnMin= -1490.95776097202     IErMin= 9 ErrMin= 8.61D-05
 ErrMax= 8.61D-05  0.00D+00 EMaxC= 1.00D-01 BMatC= 7.16D-07 BMatP= 1.63D-06
 IDIUse=1 WtCom= 1.00D+00 WtEn= 0.00D+00
 Coeff-Com: -0.292D-02 0.594D-02 0.145D-01 0.285D-01-0.145D-01-0.200D+00
 Coeff-Com: -0.229D+00 0.184D+00 0.121D+01
 Coeff:     -0.292D-02 0.594D-02 0.145D-01 0.285D-01-0.145D-01-0.200D+00
 Coeff:     -0.229D+00 0.184D+00 0.121D+01
 Gap=     0.231 Goal=   None    Shift=    0.000
 RMSDP=2.89D-05 MaxDP=1.06D-03 DE=-1.22D-05 OVMax= 5.08D-03

 Cycle  10  Pass 0  IDiag  1:
 RMSU=  5.93D-06    CP:  9.48D-01  1.43D+00  8.78D-01  9.24D-01  1.28D+00
                    CP:  1.72D+00  2.05D+00  2.38D+00  2.01D+00
 E= -1490.95777301547     Delta-E=       -0.000012043447 Rises=F Damp=F
 DIIS: error= 4.91D-05 at cycle  10 NSaved=  10.
 NSaved=10 IEnMin=10 EnMin= -1490.95777301547     IErMin=10 ErrMin= 4.91D-05
 ErrMax= 4.91D-05  0.00D+00 EMaxC= 1.00D-01 BMatC= 2.88D-07 BMatP= 7.16D-07
 IDIUse=1 WtCom= 1.00D+00 WtEn= 0.00D+00
 Coeff-Com:  0.678D-03-0.164D-02-0.149D-02 0.199D-02 0.186D-01 0.388D-01
 Coeff-Com: -0.824D-01-0.481D+00-0.865D-01 0.159D+01
 Coeff:      0.678D-03-0.164D-02-0.149D-02 0.199D-02 0.186D-01 0.388D-01
 Coeff:     -0.824D-01-0.481D+00-0.865D-01 0.159D+01
 Gap=     0.231 Goal=   None    Shift=    0.000
 RMSDP=3.09D-05 MaxDP=1.19D-03 DE=-1.20D-05 OVMax= 5.47D-03

 Cycle  11  Pass 0  IDiag  1:
 RMSU=  7.56D-06    CP:  9.48D-01  1.43D+00  8.78D-01  9.27D-01  1.32D+00
                    CP:  1.88D+00  2.54D+00  3.00D+00  3.00D+00  2.14D+00
 E= -1490.95778006759     Delta-E=       -0.000007052124 Rises=F Damp=F
 DIIS: error= 1.91D-05 at cycle  11 NSaved=  11.
 NSaved=11 IEnMin=11 EnMin= -1490.95778006759     IErMin=11 ErrMin= 1.91D-05
 ErrMax= 1.91D-05  0.00D+00 EMaxC= 1.00D-01 BMatC= 8.09D-08 BMatP= 2.88D-07
 IDIUse=1 WtCom= 1.00D+00 WtEn= 0.00D+00
 Coeff-Com:  0.106D-02-0.222D-02-0.462D-02-0.755D-02 0.109D-01 0.765D-01
 Coeff-Com:  0.365D-01-0.235D+00-0.389D+00 0.486D+00 0.103D+01
 Coeff:      0.106D-02-0.222D-02-0.462D-02-0.755D-02 0.109D-01 0.765D-01
 Coeff:      0.365D-01-0.235D+00-0.389D+00 0.486D+00 0.103D+01
 Gap=     0.231 Goal=   None    Shift=    0.000
 RMSDP=1.57D-05 MaxDP=6.18D-04 DE=-7.05D-06 OVMax= 2.76D-03

 Cycle  12  Pass 0  IDiag  1:
 RMSU=  3.72D-06    CP:  9.48D-01  1.43D+00  8.79D-01  9.28D-01  1.34D+00
                    CP:  1.95D+00  2.77D+00  3.00D+00  3.00D+00  2.89D+00
                    CP:  2.40D+00
 E= -1490.95778164859     Delta-E=       -0.000001580993 Rises=F Damp=F
 DIIS: error= 8.72D-06 at cycle  12 NSaved=  12.
 NSaved=12 IEnMin=12 EnMin= -1490.95778164859     IErMin=12 ErrMin= 8.72D-06
 ErrMax= 8.72D-06  0.00D+00 EMaxC= 1.00D-01 BMatC= 2.19D-08 BMatP= 8.09D-08
 IDIUse=1 WtCom= 1.00D+00 WtEn= 0.00D+00
 Coeff-Com:  0.219D-03-0.399D-03-0.141D-02-0.379D-02-0.105D-02 0.225D-01
 Coeff-Com:  0.378D-01 0.549D-01-0.116D+00-0.315D+00 0.394D+00 0.929D+00
 Coeff:      0.219D-03-0.399D-03-0.141D-02-0.379D-02-0.105D-02 0.225D-01
 Coeff:      0.378D-01 0.549D-01-0.116D+00-0.315D+00 0.394D+00 0.929D+00
 Gap=     0.231 Goal=   None    Shift=    0.000
 RMSDP=6.06D-06 MaxDP=2.52D-04 DE=-1.58D-06 OVMax= 1.05D-03

 Initial convergence to 1.0D-05 achieved.  Increase integral accuracy.
 Cycle  13  Pass 1  IDiag  1:
 E= -1490.95775864225     Delta-E=        0.000023006337 Rises=F Damp=F
 DIIS: error= 5.06D-05 at cycle   1 NSaved=   1.
 NSaved= 1 IEnMin= 1 EnMin= -1490.95775864225     IErMin= 1 ErrMin= 5.06D-05
 ErrMax= 5.06D-05  0.00D+00 EMaxC= 1.00D-01 BMatC= 9.97D-07 BMatP= 9.97D-07
 IDIUse=1 WtCom= 1.00D+00 WtEn= 0.00D+00
 Coeff-Com:  0.100D+01
 Coeff:      0.100D+01
 Gap=     0.231 Goal=   None    Shift=    0.000
 RMSDP=6.06D-06 MaxDP=2.52D-04 DE= 2.30D-05 OVMax= 1.48D-04

 Cycle  14  Pass 1  IDiag  1:
 RMSU=  7.76D-05    CP:  1.00D+00
 E= -1490.95775961173     Delta-E=       -0.000000969480 Rises=F Damp=F
 DIIS: error= 3.56D-06 at cycle   2 NSaved=   2.
 NSaved= 2 IEnMin= 2 EnMin= -1490.95775961173     IErMin= 2 ErrMin= 3.56D-06
 ErrMax= 3.56D-06  0.00D+00 EMaxC= 1.00D-01 BMatC= 1.30D-08 BMatP= 9.97D-07
 IDIUse=1 WtCom= 1.00D+00 WtEn= 0.00D+00
 Coeff-Com: -0.401D-01 0.104D+01
 Coeff:     -0.401D-01 0.104D+01
 Gap=     0.231 Goal=   None    Shift=    0.000
 RMSDP=4.70D-06 MaxDP=1.02D-04 DE=-9.69D-07 OVMax= 6.32D-05

 Cycle  15  Pass 1  IDiag  1:
 RMSU=  1.79D-06    CP:  1.00D+00  1.06D+00
 E= -1490.95775962894     Delta-E=       -0.000000017214 Rises=F Damp=F
 DIIS: error= 2.69D-06 at cycle   3 NSaved=   3.
 NSaved= 3 IEnMin= 3 EnMin= -1490.95775962894     IErMin= 3 ErrMin= 2.69D-06
 ErrMax= 2.69D-06  0.00D+00 EMaxC= 1.00D-01 BMatC= 5.78D-09 BMatP= 1.30D-08
 IDIUse=1 WtCom= 1.00D+00 WtEn= 0.00D+00
 Coeff-Com: -0.265D-01 0.415D+00 0.611D+00
 Coeff:     -0.265D-01 0.415D+00 0.611D+00
 Gap=     0.231 Goal=   None    Shift=    0.000
 RMSDP=5.05D-07 MaxDP=1.64D-05 DE=-1.72D-08 OVMax= 2.89D-05

 Cycle  16  Pass 1  IDiag  1:
 RMSU=  4.89D-07    CP:  1.00D+00  1.06D+00  9.66D-01
 E= -1490.95775963555     Delta-E=       -0.000000006603 Rises=F Damp=F
 DIIS: error= 1.01D-06 at cycle   4 NSaved=   4.
 NSaved= 4 IEnMin= 4 EnMin= -1490.95775963555     IErMin= 4 ErrMin= 1.01D-06
 ErrMax= 1.01D-06  0.00D+00 EMaxC= 1.00D-01 BMatC= 4.86D-10 BMatP= 5.78D-09
 IDIUse=1 WtCom= 1.00D+00 WtEn= 0.00D+00
 Coeff-Com: -0.388D-02 0.199D-01 0.175D+00 0.809D+00
 Coeff:     -0.388D-02 0.199D-01 0.175D+00 0.809D+00
 Gap=     0.231 Goal=   None    Shift=    0.000
 RMSDP=2.44D-07 MaxDP=7.70D-06 DE=-6.60D-09 OVMax= 3.21D-05

 Cycle  17  Pass 1  IDiag  1:
 RMSU=  2.00D-07    CP:  1.00D+00  1.06D+00  1.03D+00  1.13D+00
 E= -1490.95775963723     Delta-E=       -0.000000001684 Rises=F Damp=F
 DIIS: error= 8.37D-07 at cycle   5 NSaved=   5.
 NSaved= 5 IEnMin= 5 EnMin= -1490.95775963723     IErMin= 5 ErrMin= 8.37D-07
 ErrMax= 8.37D-07  0.00D+00 EMaxC= 1.00D-01 BMatC= 1.48D-10 BMatP= 4.86D-10
 IDIUse=1 WtCom= 1.00D+00 WtEn= 0.00D+00
 Coeff-Com:  0.332D-02-0.668D-01-0.610D-01 0.271D+00 0.854D+00
 Coeff:      0.332D-02-0.668D-01-0.610D-01 0.271D+00 0.854D+00
 Gap=     0.231 Goal=   None    Shift=    0.000
 RMSDP=1.96D-07 MaxDP=7.40D-06 DE=-1.68D-09 OVMax= 3.15D-05

 Cycle  18  Pass 1  IDiag  1:
 RMSU=  1.25D-07    CP:  1.00D+00  1.06D+00  1.07D+00  1.33D+00  1.50D+00
 E= -1490.95775963824     Delta-E=       -0.000000001007 Rises=F Damp=F
 DIIS: error= 6.22D-07 at cycle   6 NSaved=   6.
 NSaved= 6 IEnMin= 6 EnMin= -1490.95775963824     IErMin= 6 ErrMin= 6.22D-07
 ErrMax= 6.22D-07  0.00D+00 EMaxC= 1.00D-01 BMatC= 5.08D-11 BMatP= 1.48D-10
 IDIUse=1 WtCom= 1.00D+00 WtEn= 0.00D+00
 Coeff-Com:  0.134D-02-0.140D-01-0.475D-01-0.131D+00 0.100D+00 0.109D+01
 Coeff:      0.134D-02-0.140D-01-0.475D-01-0.131D+00 0.100D+00 0.109D+01
 Gap=     0.231 Goal=   None    Shift=    0.000
 RMSDP=1.86D-07 MaxDP=7.51D-06 DE=-1.01D-09 OVMax= 3.24D-05

 Cycle  19  Pass 1  IDiag  1:
 RMSU=  5.34D-08    CP:  1.00D+00  1.06D+00  1.09D+00  1.46D+00  2.15D+00
                    CP:  1.77D+00
 E= -1490.95775963890     Delta-E=       -0.000000000667 Rises=F Damp=F
 DIIS: error= 4.91D-07 at cycle   7 NSaved=   7.
 NSaved= 7 IEnMin= 7 EnMin= -1490.95775963890     IErMin= 7 ErrMin= 4.91D-07
 ErrMax= 4.91D-07  0.00D+00 EMaxC= 1.00D-01 BMatC= 2.67D-11 BMatP= 5.08D-11
 IDIUse=1 WtCom= 1.00D+00 WtEn= 0.00D+00
 Coeff-Com: -0.169D-02 0.385D-01 0.229D-01-0.222D+00-0.527D+00 0.346D+00
 Coeff-Com:  0.134D+01
 Coeff:     -0.169D-02 0.385D-01 0.229D-01-0.222D+00-0.527D+00 0.346D+00
 Coeff:      0.134D+01
 Gap=     0.231 Goal=   None    Shift=    0.000
 RMSDP=2.54D-07 MaxDP=1.02D-05 DE=-6.67D-10 OVMax= 4.47D-05

 Cycle  20  Pass 1  IDiag  1:
 RMSU=  4.14D-08    CP:  1.00D+00  1.06D+00  1.11D+00  1.64D+00  2.98D+00
                    CP:  2.96D+00  2.12D+00
 E= -1490.95775963949     Delta-E=       -0.000000000583 Rises=F Damp=F
 DIIS: error= 2.46D-07 at cycle   8 NSaved=   8.
 NSaved= 8 IEnMin= 8 EnMin= -1490.95775963949     IErMin= 8 ErrMin= 2.46D-07
 ErrMax= 2.46D-07  0.00D+00 EMaxC= 1.00D-01 BMatC= 7.68D-12 BMatP= 2.67D-11
 IDIUse=1 WtCom= 1.00D+00 WtEn= 0.00D+00
 Coeff-Com: -0.869D-03 0.138D-01 0.218D-01-0.223D-02-0.135D+00-0.304D+00
 Coeff-Com:  0.259D+00 0.115D+01
 Coeff:     -0.869D-03 0.138D-01 0.218D-01-0.223D-02-0.135D+00-0.304D+00
 Coeff:      0.259D+00 0.115D+01
 Gap=     0.231 Goal=   None    Shift=    0.000
 RMSDP=1.42D-07 MaxDP=5.49D-06 DE=-5.83D-10 OVMax= 2.49D-05

 Cycle  21  Pass 1  IDiag  1:
 RMSU=  1.15D-07    CP:  1.00D+00  1.06D+00  1.12D+00  1.73D+00  3.00D+00
                    CP:  3.00D+00  3.00D+00  1.70D+00
 E= -1490.95775963964     Delta-E=       -0.000000000152 Rises=F Damp=F
 DIIS: error= 1.13D-07 at cycle   9 NSaved=   9.
 NSaved= 9 IEnMin= 9 EnMin= -1490.95775963964     IErMin= 9 ErrMin= 1.13D-07
 ErrMax= 1.13D-07  0.00D+00 EMaxC= 1.00D-01 BMatC= 2.32D-12 BMatP= 7.68D-12
 IDIUse=1 WtCom= 1.00D+00 WtEn= 0.00D+00
 Coeff-Com:  0.416D-03-0.116D-01-0.319D-02 0.884D-01 0.180D+00-0.237D+00
 Coeff-Com: -0.494D+00 0.380D+00 0.110D+01
 Coeff:      0.416D-03-0.116D-01-0.319D-02 0.884D-01 0.180D+00-0.237D+00
 Coeff:     -0.494D+00 0.380D+00 0.110D+01
 Gap=     0.231 Goal=   None    Shift=    0.000
 RMSDP=8.58D-08 MaxDP=3.30D-06 DE=-1.52D-10 OVMax= 1.51D-05

 Cycle  22  Pass 1  IDiag  1:
 RMSU=  3.30D-08    CP:  1.00D+00  1.06D+00  1.13D+00  1.78D+00  3.00D+00
                    CP:  3.00D+00  3.00D+00  2.33D+00  1.60D+00
 E= -1490.95775963970     Delta-E=       -0.000000000060 Rises=F Damp=F
 DIIS: error= 3.88D-08 at cycle  10 NSaved=  10.
 NSaved=10 IEnMin=10 EnMin= -1490.95775963970     IErMin=10 ErrMin= 3.88D-08
 ErrMax= 3.88D-08  0.00D+00 EMaxC= 1.00D-01 BMatC= 3.10D-13 BMatP= 2.32D-12
 IDIUse=1 WtCom= 1.00D+00 WtEn= 0.00D+00
 Coeff-Com:  0.246D-03-0.516D-02-0.420D-02 0.238D-01 0.684D-01-0.105D-01
 Coeff-Com: -0.171D+00-0.862D-01 0.271D+00 0.914D+00
 Coeff:      0.246D-03-0.516D-02-0.420D-02 0.238D-01 0.684D-01-0.105D-01
 Coeff:     -0.171D+00-0.862D-01 0.271D+00 0.914D+00
 Gap=     0.231 Goal=   None    Shift=    0.000
 RMSDP=1.87D-08 MaxDP=6.77D-07 DE=-5.96D-11 OVMax= 3.18D-06

 Cycle  23  Pass 1  IDiag  1:
 RMSU=  5.54D-09    CP:  1.00D+00  1.06D+00  1.13D+00  1.79D+00  3.00D+00
                    CP:  3.00D+00  3.00D+00  2.48D+00  1.72D+00  1.22D+00
 E= -1490.95775963971     Delta-E=       -0.000000000012 Rises=F Damp=F
 DIIS: error= 1.42D-08 at cycle  11 NSaved=  11.
 NSaved=11 IEnMin=11 EnMin= -1490.95775963971     IErMin=11 ErrMin= 1.42D-08
 ErrMax= 1.42D-08  0.00D+00 EMaxC= 1.00D-01 BMatC= 9.62D-14 BMatP= 3.10D-13
 IDIUse=1 WtCom= 1.00D+00 WtEn= 0.00D+00
 Coeff-Com:  0.135D-04 0.385D-03-0.125D-02-0.102D-01-0.123D-01 0.501D-01
 Coeff-Com:  0.387D-01-0.122D+00-0.132D+00 0.413D+00 0.776D+00
 Coeff:      0.135D-04 0.385D-03-0.125D-02-0.102D-01-0.123D-01 0.501D-01
 Coeff:      0.387D-01-0.122D+00-0.132D+00 0.413D+00 0.776D+00
 Gap=     0.231 Goal=   None    Shift=    0.000
 RMSDP=5.72D-09 MaxDP=1.94D-07 DE=-1.23D-11 OVMax= 9.28D-07

 SCF Done:  E(RwB97XD) =  -1490.95775964     A.U. after   23 cycles
            NFock= 23  Conv=0.57D-08     -V/T= 2.0054
 KE= 1.482948622239D+03 PE=-5.970365011973D+03 EE= 1.766626462060D+03
 Leave Link  502 at Fri Mar  6 16:25:41 2026, MaxMem=  2415919104 cpu:             204.2 elap:              19.9
 (Enter /prod/precompiled/gaussian/16c2/g16/l508.exe)
 QCSCF skips out because SCF is already converged.
 Leave Link  508 at Fri Mar  6 16:25:41 2026, MaxMem=  2415919104 cpu:               0.1 elap:               0.0
 (Enter /prod/precompiled/gaussian/16c2/g16/l801.exe)
 DoSCS=F DFT=T ScalE2(SS,OS)=  1.000000  1.000000
 Range of M.O.s used for correlation:     1   272
 NBasis=   272 NAE=    64 NBE=    64 NFC=     0 NFV=     0
 NROrb=    272 NOA=    64 NOB=    64 NVA=   208 NVB=   208

 **** Warning!!: The largest alpha MO coefficient is  0.15203759D+02

 Leave Link  801 at Fri Mar  6 16:25:41 2026, MaxMem=  2415919104 cpu:               0.1 elap:               0.0
 (Enter /prod/precompiled/gaussian/16c2/g16/l1101.exe)
 Using compressed storage, NAtomX=    24.
 Will process     25 centers per pass.
   1 Symmetry operations used in ECPInt.
 ECPInt:  NShTT=    7750 NPrTT=   30142 LenC2=    7096 LenP2D=   19265.
 LDataN:  DoStor=T MaxTD1= 5 Len=  102
 R6Disp: Adding Grimme-D2 dispersion energy 1st derivatives to the gradient.
 Leave Link 1101 at Fri Mar  6 16:25:41 2026, MaxMem=  2415919104 cpu:               1.7 elap:               0.3
 (Enter /prod/precompiled/gaussian/16c2/g16/l1102.exe)
 Symmetrizing basis deriv contribution to polar:
 IMax=3 JMax=2 DiffMx= 0.00D+00
 Leave Link 1102 at Fri Mar  6 16:25:41 2026, MaxMem=  2415919104 cpu:               0.2 elap:               0.1
 (Enter /prod/precompiled/gaussian/16c2/g16/l1110.exe)
 Forming Gx(P) for the SCF density, NAtomX=    24.
 Integral derivatives from FoFJK, PRISM(SPDF).
 Do as many integral derivatives as possible in FoFJK.
 G2DrvN: MDV=    2415916544.
 G2DrvN: will do    25 centers at a time, making    1 passes.
 Calling FoFCou, ICntrl=  3107 FMM=F I1Cent=   0 AccDes= 0.00D+00.
 FoFJK:  IHMeth= 1 ICntrl=    3107 DoSepK=T KAlg= 0 I1Cent=           0 FoldK=F
 IRaf=         1 NMat=       1 IRICut=       1 DoRegI=T DoRafI=F ISym2E= 0 IDoP0=0 IntGTp=1.
 FoFCou: FMM=F IPFlag=           0 FMFlag=      100000 FMFlg1=           0
         NFxFlg=           0 DoJE=F BraDBF=F KetDBF=F FulRan=T
         wScrn=  0.000000 ICntrl=      3507 IOpCl=  0 I1Cent=           0 NGrid=           0
         NMat0=    1 NMatS0=      1 NMatT0=    0 NMatD0=    1 NMtDS0=    0 NMtDT0=    0
 Symmetry not used in FoFCou.
 End of G2Drv F.D. properties file   721 does not exist.
 End of G2Drv F.D. properties file   722 does not exist.
 End of G2Drv F.D. properties file   788 does not exist.
 Leave Link 1110 at Fri Mar  6 16:25:57 2026, MaxMem=  2415919104 cpu:             190.1 elap:              16.4
 (Enter /prod/precompiled/gaussian/16c2/g16/l1002.exe)
 Minotr:  Closed shell wavefunction.
          IDoAtm=111111111111111111111111
          Direct CPHF calculation.
          Differentiating once with respect to electric field.
                with respect to dipole field.
          Differentiating once with respect to nuclear coordinates.
          Requested convergence is 1.0D-08 RMS, and 1.0D-07 maximum.
          Secondary convergence is 1.0D-12 RMS, and 1.0D-12 maximum.
          NewPWx=T KeepS1=F KeepF1=F KeepIn=T MapXYZ=F SortEE=F KeepMc=T.
         7195 words used for storage of precomputed grid.
 Keep R1 ints in memory in canonical form, NReq=1402150885.
 FoFCou: FMM=F IPFlag=           0 FMFlag=           0 FMFlg1=           0
         NFxFlg=           0 DoJE=F BraDBF=F KetDBF=F FulRan=T
         wScrn=  0.000000 ICntrl=       600 IOpCl=  0 I1Cent=           0 NGrid=           0
         NMat0=    1 NMatS0=  37128 NMatT0=    0 NMatD0=    1 NMtDS0=    0 NMtDT0=    0
 Symmetry not used in FoFCou.
 Two-electron integral symmetry not used.
          MDV=    2415919104 using IRadAn=       1.
          Solving linear equations simultaneously, MaxMat=       0.
          There are    75 degrees of freedom in the 1st order CPHF.  IDoFFX=6 NUNeed=     3.
     72 vectors produced by pass  0 Test12= 1.77D-14 1.33D-09 XBig12= 1.24D+02 4.48D+00.
 AX will form    72 AO Fock derivatives at one time.
     72 vectors produced by pass  1 Test12= 1.77D-14 1.33D-09 XBig12= 1.19D+01 4.71D-01.
     72 vectors produced by pass  2 Test12= 1.77D-14 1.33D-09 XBig12= 5.03D-01 8.35D-02.
     72 vectors produced by pass  3 Test12= 1.77D-14 1.33D-09 XBig12= 9.02D-03 1.12D-02.
     72 vectors produced by pass  4 Test12= 1.77D-14 1.33D-09 XBig12= 8.70D-05 1.13D-03.
     72 vectors produced by pass  5 Test12= 1.77D-14 1.33D-09 XBig12= 5.86D-07 7.65D-05.
     68 vectors produced by pass  6 Test12= 1.77D-14 1.33D-09 XBig12= 3.76D-09 6.67D-06.
     41 vectors produced by pass  7 Test12= 1.77D-14 1.33D-09 XBig12= 1.88D-11 3.96D-07.
      3 vectors produced by pass  8 Test12= 1.77D-14 1.33D-09 XBig12= 9.11D-14 2.65D-08.
      1 vectors produced by pass  9 Test12= 1.77D-14 1.33D-09 XBig12= 4.74D-16 2.26D-09.
 InvSVY:  IOpt=1 It=  1 EMax= 3.55D-15
 Solved reduced A of dimension   545 with    75 vectors.
 FullF1:  Do perturbations      1 to       3.
 Isotropic polarizability for W=    0.000000      166.94 Bohr**3.
 End of Minotr F.D. properties file   721 does not exist.
 End of Minotr F.D. properties file   722 does not exist.
 End of Minotr F.D. properties file   788 does not exist.
 Leave Link 1002 at Fri Mar  6 16:26:23 2026, MaxMem=  2415919104 cpu:             267.2 elap:              25.9
 (Enter /prod/precompiled/gaussian/16c2/g16/l601.exe)
 Copying SCF densities to generalized density rwf, IOpCl= 0 IROHF=0.

 **********************************************************************

            Population analysis using the SCF Density.

 **********************************************************************

 Alpha  occ. eigenvalues -- -101.68594-101.67423 -14.50933 -14.47573 -10.39012
 Alpha  occ. eigenvalues --  -10.38272 -10.36255 -10.33466 -10.33172 -10.32985
 Alpha  occ. eigenvalues --  -10.32870 -10.32335 -10.31449 -10.31330 -10.31155
 Alpha  occ. eigenvalues --  -10.31042  -9.59363  -9.58217  -7.34766  -7.33773
 Alpha  occ. eigenvalues --   -7.33724  -7.33607  -7.32620  -7.32598  -1.11764
 Alpha  occ. eigenvalues --   -1.00689  -0.98778  -0.94814  -0.93491  -0.90654
 Alpha  occ. eigenvalues --   -0.85659  -0.84125  -0.82669  -0.78159  -0.72659
 Alpha  occ. eigenvalues --   -0.71283  -0.70468  -0.67004  -0.63875  -0.60200
 Alpha  occ. eigenvalues --   -0.58805  -0.58375  -0.57004  -0.54944  -0.53623
 Alpha  occ. eigenvalues --   -0.52666  -0.52374  -0.51465  -0.51112  -0.48259
 Alpha  occ. eigenvalues --   -0.46939  -0.46326  -0.46174  -0.45549  -0.43950
 Alpha  occ. eigenvalues --   -0.43243  -0.41698  -0.39419  -0.38851  -0.36059
 Alpha  occ. eigenvalues --   -0.33647  -0.32945  -0.31485  -0.25739
 Alpha virt. eigenvalues --   -0.02670   0.03616   0.04972   0.05584   0.10012
 Alpha virt. eigenvalues --    0.10318   0.12353   0.15575   0.16806   0.17538
 Alpha virt. eigenvalues --    0.18833   0.20748   0.21621   0.22051   0.22334
 Alpha virt. eigenvalues --    0.22748   0.23298   0.24019   0.28645   0.33370
 Alpha virt. eigenvalues --    0.34000   0.34527   0.35058   0.35255   0.36547
 Alpha virt. eigenvalues --    0.37489   0.38513   0.39718   0.42611   0.43879
 Alpha virt. eigenvalues --    0.45115   0.47142   0.48463   0.49738   0.51178
 Alpha virt. eigenvalues --    0.51427   0.51736   0.52175   0.53540   0.53781
 Alpha virt. eigenvalues --    0.54979   0.55032   0.56443   0.57393   0.59023
 Alpha virt. eigenvalues --    0.59560   0.60536   0.60778   0.61293   0.62534
 Alpha virt. eigenvalues --    0.64647   0.65554   0.65796   0.67425   0.68948
 Alpha virt. eigenvalues --    0.69629   0.70629   0.71006   0.71301   0.72902
 Alpha virt. eigenvalues --    0.73540   0.74370   0.74918   0.75371   0.75843
 Alpha virt. eigenvalues --    0.76590   0.77510   0.78124   0.78632   0.79088
 Alpha virt. eigenvalues --    0.79891   0.80120   0.81447   0.82055   0.82841
 Alpha virt. eigenvalues --    0.83877   0.85740   0.86037   0.87005   0.87597
 Alpha virt. eigenvalues --    0.88387   0.89179   0.90065   0.91105   0.91665
 Alpha virt. eigenvalues --    0.92722   0.93454   0.94679   0.96182   0.97365
 Alpha virt. eigenvalues --    0.99488   1.02360   1.03770   1.05156   1.08192
 Alpha virt. eigenvalues --    1.10317   1.11503   1.15073   1.15924   1.19690
 Alpha virt. eigenvalues --    1.21276   1.22189   1.23575   1.25514   1.28306
 Alpha virt. eigenvalues --    1.29706   1.31080   1.32402   1.33017   1.33889
 Alpha virt. eigenvalues --    1.34429   1.34868   1.35537   1.36561   1.37706
 Alpha virt. eigenvalues --    1.38312   1.40888   1.47321   1.49607   1.50926
 Alpha virt. eigenvalues --    1.56855   1.57841   1.58617   1.59117   1.65164
 Alpha virt. eigenvalues --    1.66561   1.73403   1.74602   1.76998   1.77666
 Alpha virt. eigenvalues --    1.78321   1.79216   1.80721   1.81801   1.82996
 Alpha virt. eigenvalues --    1.83272   1.84547   1.85526   1.85786   1.86628
 Alpha virt. eigenvalues --    1.87554   1.90061   1.90227   1.91838   1.94131
 Alpha virt. eigenvalues --    1.98259   1.98487   1.99426   2.01490   2.01595
 Alpha virt. eigenvalues --    2.03020   2.03291   2.07369   2.08357   2.09664
 Alpha virt. eigenvalues --    2.12190   2.13839   2.14310   2.18067   2.20874
 Alpha virt. eigenvalues --    2.21775   2.22408   2.23279   2.26249   2.30058
 Alpha virt. eigenvalues --    2.30744   2.31411   2.32991   2.34353   2.35167
 Alpha virt. eigenvalues --    2.35891   2.36581   2.36933   2.37869   2.39180
 Alpha virt. eigenvalues --    2.40062   2.47067   2.49430   2.52691   2.56383
 Alpha virt. eigenvalues --    2.58778   2.65382   2.67178   2.67901   2.69331
 Alpha virt. eigenvalues --    2.69782   2.70929   2.76691   2.79704   2.80852
 Alpha virt. eigenvalues --    2.81447   2.87391   2.89181   2.90182   2.90356
 Alpha virt. eigenvalues --    2.95132   2.97503   3.03929   3.08099   3.11123
 Alpha virt. eigenvalues --    3.12764   3.16463   3.20897   3.28004   3.44697
 Alpha virt. eigenvalues --    3.56609   3.66866   3.80280
          Condensed to atoms (all electrons):
               1          2          3          4          5          6
     1  C    5.039137   0.170569  -0.040793   0.084086  -0.135474   0.095047
     2  C    0.170569   5.407793   0.251473   0.304117   0.086457  -0.133894
     3  Cl  -0.040793   0.251473  16.890910  -0.060840   0.003050   0.000580
     4  C    0.084086   0.304117  -0.060840   4.998234   0.313491   0.066614
     5  C   -0.135474   0.086457   0.003050   0.313491   5.037827   0.266305
     6  C    0.095047  -0.133894   0.000580   0.066614   0.266305   5.158685
     7  C    0.351628  -0.009830   0.001605  -0.090069   0.080310   0.230411
     8  N    0.393702  -0.079204   0.002798   0.004409  -0.000454   0.010934
     9  N   -0.036188   0.002020  -0.001224  -0.000028  -0.000002  -0.000063
    10  C   -0.003568   0.002288   0.001012  -0.000010  -0.000002   0.000022
    11  C    0.001330  -0.001102   0.005075   0.000062  -0.000002   0.000001
    12  Cl   0.004257   0.004244  -0.004313  -0.000604   0.000019  -0.000020
    13  C   -0.000058   0.000085  -0.001040  -0.000002   0.000000   0.000000
    14  C   -0.000007   0.000000  -0.000069  -0.000000   0.000000   0.000000
    15  C    0.000006   0.000001   0.000010  -0.000000   0.000000   0.000000
    16  C    0.000175  -0.000056  -0.000245  -0.000000   0.000000  -0.000000
    17  H    0.015158  -0.061943   0.001446   0.440363  -0.056192   0.013568
    18  H   -0.001925   0.013657  -0.000132  -0.059868   0.446529  -0.064040
    19  H    0.012605  -0.002465   0.000007   0.013243  -0.065670   0.444222
    20  H   -0.053270   0.018549  -0.000077  -0.002779   0.013804  -0.066867
    21  H    0.000006  -0.000007   0.000025   0.000000   0.000000  -0.000000
    22  H    0.000000   0.000000  -0.000000  -0.000000   0.000000  -0.000000
    23  H   -0.000000  -0.000000   0.000000   0.000000  -0.000000  -0.000000
    24  H    0.000059  -0.000029   0.000003   0.000000   0.000000  -0.000000
               7          8          9         10         11         12
     1  C    0.351628   0.393702  -0.036188  -0.003568   0.001330   0.004257
     2  C   -0.009830  -0.079204   0.002020   0.002288  -0.001102   0.004244
     3  Cl   0.001605   0.002798  -0.001224   0.001012   0.005075  -0.004313
     4  C   -0.090069   0.004409  -0.000028  -0.000010   0.000062  -0.000604
     5  C    0.080310  -0.000454  -0.000002  -0.000002  -0.000002   0.000019
     6  C    0.230411   0.010934  -0.000063   0.000022   0.000001  -0.000020
     7  C    5.127955  -0.084798   0.001236  -0.000463   0.000006  -0.000664
     8  N   -0.084798   6.695269   0.333301  -0.086976  -0.010016   0.000035
     9  N    0.001236   0.333301   6.545969   0.339661  -0.064874  -0.003601
    10  C   -0.000463  -0.086976   0.339661   5.151331   0.247519  -0.060843
    11  C    0.000006  -0.010016  -0.064874   0.247519   5.262973   0.251228
    12  Cl  -0.000664   0.000035  -0.003601  -0.060843   0.251228  16.944122
    13  C   -0.000006  -0.001257   0.004637   0.079145   0.335001  -0.059787
    14  C    0.000000   0.000059  -0.000237  -0.135023   0.080413   0.002934
    15  C   -0.000000  -0.000425   0.006620   0.095548  -0.148452   0.000635
    16  C    0.000019   0.002577  -0.069315   0.339215   0.056068   0.001584
    17  H   -0.002641  -0.000062   0.000002  -0.000001   0.000000   0.000002
    18  H    0.011985   0.000006  -0.000000   0.000000   0.000000   0.000000
    19  H   -0.055535  -0.000176   0.000002  -0.000000  -0.000000   0.000000
    20  H    0.444706  -0.004629  -0.000202   0.000052   0.000001   0.000020
    21  H    0.000000   0.000028  -0.000077   0.015952  -0.065348   0.002000
    22  H   -0.000000   0.000000   0.000006  -0.001719   0.013840  -0.000123
    23  H    0.000000   0.000005  -0.000086   0.013226  -0.001599   0.000008
    24  H    0.000013   0.000600  -0.000163  -0.068562   0.019604  -0.000055
              13         14         15         16         17         18
     1  C   -0.000058  -0.000007   0.000006   0.000175   0.015158  -0.001925
     2  C    0.000085   0.000000   0.000001  -0.000056  -0.061943   0.013657
     3  Cl  -0.001040  -0.000069   0.000010  -0.000245   0.001446  -0.000132
     4  C   -0.000002  -0.000000  -0.000000  -0.000000   0.440363  -0.059868
     5  C    0.000000   0.000000   0.000000   0.000000  -0.056192   0.446529
     6  C    0.000000   0.000000   0.000000  -0.000000   0.013568  -0.064040
     7  C   -0.000006   0.000000  -0.000000   0.000019  -0.002641   0.011985
     8  N   -0.001257   0.000059  -0.000425   0.002577  -0.000062   0.000006
     9  N    0.004637  -0.000237   0.006620  -0.069315   0.000002  -0.000000
    10  C    0.079145  -0.135023   0.095548   0.339215  -0.000001   0.000000
    11  C    0.335001   0.080413  -0.148452   0.056068   0.000000   0.000000
    12  Cl  -0.059787   0.002934   0.000635   0.001584   0.000002   0.000000
    13  C    4.975069   0.322810   0.073169  -0.106788   0.000000  -0.000000
    14  C    0.322810   5.048345   0.283824   0.070930   0.000000  -0.000000
    15  C    0.073169   0.283824   5.072717   0.304618  -0.000000   0.000000
    16  C   -0.106788   0.070930   0.304618   5.034997   0.000000  -0.000000
    17  H    0.000000   0.000000  -0.000000   0.000000   0.632675  -0.011514
    18  H   -0.000000  -0.000000   0.000000  -0.000000  -0.011514   0.639135
    19  H   -0.000000   0.000000  -0.000000   0.000000  -0.000246  -0.010813
    20  H    0.000000  -0.000000   0.000000  -0.000000   0.000008  -0.000185
    21  H    0.439651  -0.058671   0.013195  -0.001981  -0.000000  -0.000000
    22  H   -0.061290   0.445945  -0.065461   0.012488  -0.000000   0.000000
    23  H    0.012746  -0.066278   0.447436  -0.062087  -0.000000  -0.000000
    24  H   -0.002934   0.013657  -0.068622   0.442913  -0.000000  -0.000000
              19         20         21         22         23         24
     1  C    0.012605  -0.053270   0.000006   0.000000  -0.000000   0.000059
     2  C   -0.002465   0.018549  -0.000007   0.000000  -0.000000  -0.000029
     3  Cl   0.000007  -0.000077   0.000025  -0.000000   0.000000   0.000003
     4  C    0.013243  -0.002779   0.000000  -0.000000   0.000000   0.000000
     5  C   -0.065670   0.013804   0.000000   0.000000  -0.000000   0.000000
     6  C    0.444222  -0.066867  -0.000000  -0.000000  -0.000000  -0.000000
     7  C   -0.055535   0.444706   0.000000  -0.000000   0.000000   0.000013
     8  N   -0.000176  -0.004629   0.000028   0.000000   0.000005   0.000600
     9  N    0.000002  -0.000202  -0.000077   0.000006  -0.000086  -0.000163
    10  C   -0.000000   0.000052   0.015952  -0.001719   0.013226  -0.068562
    11  C   -0.000000   0.000001  -0.065348   0.013840  -0.001599   0.019604
    12  Cl   0.000000   0.000020   0.002000  -0.000123   0.000008  -0.000055
    13  C   -0.000000   0.000000   0.439651  -0.061290   0.012746  -0.002934
    14  C    0.000000  -0.000000  -0.058671   0.445945  -0.066278   0.013657
    15  C   -0.000000   0.000000   0.013195  -0.065461   0.447436  -0.068622
    16  C    0.000000  -0.000000  -0.001981   0.012488  -0.062087   0.442913
    17  H   -0.000246   0.000008  -0.000000  -0.000000  -0.000000  -0.000000
    18  H   -0.010813  -0.000185  -0.000000   0.000000  -0.000000  -0.000000
    19  H    0.643152  -0.011658   0.000000   0.000000   0.000000   0.000000
    20  H   -0.011658   0.623828  -0.000000  -0.000000  -0.000000  -0.000003
    21  H    0.000000  -0.000000   0.648258  -0.011855  -0.000216   0.000027
    22  H    0.000000  -0.000000  -0.011855   0.652381  -0.011080  -0.000218
    23  H    0.000000  -0.000000  -0.000216  -0.011080   0.653049  -0.010968
    24  H    0.000000  -0.000003   0.000027  -0.000218  -0.010968   0.657479
 Mulliken charges:
               1
     1  C    0.103515
     2  C    0.027275
     3  Cl  -0.049263
     4  C   -0.010419
     5  C    0.010002
     6  C   -0.021505
     7  C   -0.005870
     8  N   -0.175728
     9  N   -0.057396
    10  C    0.072196
    11  C    0.018270
    12  Cl  -0.081079
    13  C   -0.009153
    14  C   -0.008632
    15  C   -0.014822
    16  C   -0.025110
    17  H    0.029378
    18  H    0.037165
    19  H    0.033333
    20  H    0.038701
    21  H    0.019012
    22  H    0.027085
    23  H    0.025844
    24  H    0.017201
 Sum of Mulliken charges =  -0.00000
 Mulliken charges with hydrogens summed into heavy atoms:
               1
     1  C    0.103515
     2  C    0.027275
     3  Cl  -0.049263
     4  C    0.018959
     5  C    0.047167
     6  C    0.011828
     7  C    0.032832
     8  N   -0.175728
     9  N   -0.057396
    10  C    0.072196
    11  C    0.018270
    12  Cl  -0.081079
    13  C    0.009859
    14  C    0.018454
    15  C    0.011022
    16  C   -0.007909
 APT charges:
               1
     1  C    0.256482
     2  C    0.327815
     3  Cl  -0.255952
     4  C   -0.206214
     5  C    0.074951
     6  C   -0.125788
     7  C   -0.003434
     8  N   -0.340425
     9  N    0.012575
    10  C    0.043738
    11  C    0.271476
    12  Cl  -0.260958
    13  C   -0.101596
    14  C   -0.032554
    15  C   -0.055656
    16  C   -0.015578
    17  H    0.062056
    18  H    0.047104
    19  H    0.039278
    20  H    0.070015
    21  H    0.056589
    22  H    0.038131
    23  H    0.033566
    24  H    0.064380
 Sum of APT charges =  -0.00000
 APT charges with hydrogens summed into heavy atoms:
               1
     1  C    0.256482
     2  C    0.327815
     3  Cl  -0.255952
     4  C   -0.144158
     5  C    0.122054
     6  C   -0.086510
     7  C    0.066581
     8  N   -0.340425
     9  N    0.012575
    10  C    0.043738
    11  C    0.271476
    12  Cl  -0.260958
    13  C   -0.045007
    14  C    0.005577
    15  C   -0.022089
    16  C    0.048802
 Electronic spatial extent (au):  <R**2>=           5351.7733
 Charge=             -0.0000 electrons
 Dipole moment (field-independent basis, Debye):
    X=              1.9799    Y=             -0.1472    Z=             -0.8031  Tot=              2.1416
 Quadrupole moment (field-independent basis, Debye-Ang):
   XX=            -85.7195   YY=            -96.1330   ZZ=           -106.5479
   XY=              9.5184   XZ=              3.4984   YZ=             -0.3243
 Traceless Quadrupole moment (field-independent basis, Debye-Ang):
   XX=             10.4140   YY=              0.0005   ZZ=            -10.4145
   XY=              9.5184   XZ=              3.4984   YZ=             -0.3243
 Octapole moment (field-independent basis, Debye-Ang**2):
  XXX=             -2.4104  YYY=            389.6207  ZZZ=           -106.9271  XYY=            -38.0388
  XXY=            115.1307  XXZ=            -46.4917  XZZ=            -29.8889  YZZ=            136.8578
  YYZ=            -24.8008  XYZ=             -0.8836
 Hexadecapole moment (field-independent basis, Debye-Ang**3):
 XXXX=          -3476.9030 YYYY=          -2498.4401 ZZZZ=           -666.3701 XXXY=           -512.4608
 XXXZ=             97.4960 YYYX=           -459.7953 YYYZ=            181.7137 ZZZX=             31.5753
 ZZZY=            236.0928 XXYY=           -948.6641 XXZZ=           -781.4376 YYZZ=           -556.2663
 XXYZ=            100.8167 YYXZ=             -8.4337 ZZXY=           -203.8588
 N-N= 1.229832168033D+03 E-N=-5.970365011425D+03  KE= 1.482948622239D+03
  Exact polarizability:     228.410      51.798     171.190      19.715     -10.243     101.214
 Approx polarizability:     231.736      33.595     204.292      27.574     -12.104     128.619
 No NMR shielding tensors so no spin-rotation constants.
 Leave Link  601 at Fri Mar  6 16:26:24 2026, MaxMem=  2415919104 cpu:               0.9 elap:               0.2
 (Enter /prod/precompiled/gaussian/16c2/g16/l701.exe)
 ... and contract with generalized density number  0.
 Compute integral second derivatives.
 R6Disp: Adding Grimme-D2 dispersion energy 2nd derivatives to the Hessian.
   1 Symmetry operations used in ECPInt.
 ECPInt:  NShTT=    7750 NPrTT=   30142 LenC2=    7096 LenP2D=   19265.
 LDataN:  DoStor=T MaxTD1= 6 Len=  172
 Leave Link  701 at Fri Mar  6 16:26:24 2026, MaxMem=  2415919104 cpu:               1.2 elap:               0.2
 (Enter /prod/precompiled/gaussian/16c2/g16/l702.exe)
 L702 exits ... SP integral derivatives will be done elsewhere.
 Leave Link  702 at Fri Mar  6 16:26:24 2026, MaxMem=  2415919104 cpu:               0.1 elap:               0.1
 (Enter /prod/precompiled/gaussian/16c2/g16/l703.exe)
 Integral derivatives from FoFJK, PRISM(SPDF).
 Compute integral second derivatives, UseDBF=F ICtDFT=           0.
 Calling FoFJK, ICntrl=    100127 FMM=F ISym2X=0 I1Cent= 0 IOpClX= 0 NMat=1 NMatS=1 NMatT=0.
 FoFJK:  IHMeth= 1 ICntrl=  100127 DoSepK=T KAlg= 0 I1Cent=           0 FoldK=F
 IRaf=         1 NMat=       1 IRICut=       1 DoRegI=T DoRafI=F ISym2E= 0 IDoP0=0 IntGTp=1.
 FoFCou: FMM=F IPFlag=           0 FMFlag=      100000 FMFlg1=         800
         NFxFlg=           0 DoJE=F BraDBF=F KetDBF=F FulRan=T
         wScrn=  0.000000 ICntrl=    100527 IOpCl=  0 I1Cent=           0 NGrid=           0
         NMat0=    1 NMatS0=      1 NMatT0=    0 NMatD0=    1 NMtDS0=    0 NMtDT0=    0
 Symmetry not used in FoFCou.
 Leave Link  703 at Fri Mar  6 16:26:58 2026, MaxMem=  2415919104 cpu:             402.4 elap:              33.9
 (Enter /prod/precompiled/gaussian/16c2/g16/l716.exe)
 Dipole        = 7.78938814D-01-5.79127337D-02-3.15966376D-01
 Polarizability= 2.28409690D+02 5.17979505D+01 1.71190169D+02
                 1.97153238D+01-1.02430889D+01 1.01214335D+02
 -------------------------------------------------------------------
 Center     Atomic                   Forces (Hartrees/Bohr)
 Number     Number              X              Y              Z
 -------------------------------------------------------------------
      1        6          -0.049348205    0.012756135    0.001031961
      2        6           0.010563080   -0.011882760    0.001328168
      3       17          -0.007566390    0.004740557   -0.004293500
      4        6          -0.005130007    0.005127448   -0.000172852
      5        6          -0.005560749   -0.003885153   -0.000387116
      6        6          -0.013037149    0.001245918    0.000110721
      7        6           0.018020927    0.003013571    0.000710711
      8        7           0.044013940    0.002975054    0.000288711
      9        7           0.028167168    0.003310344   -0.006711428
     10        6          -0.021796156   -0.019510631    0.001607872
     11        6          -0.005892326   -0.010775741   -0.002385926
     12       17           0.002053326    0.005308670    0.005543462
     13        6          -0.002330433    0.005134916   -0.005639319
     14        6           0.004602446    0.002198034    0.002996440
     15        6           0.007618437    0.009281613   -0.001281971
     16        6          -0.003580571   -0.008053196    0.006220791
     17        1          -0.001622094   -0.003646232    0.000032892
     18        1           0.002814753   -0.000110013   -0.000144089
     19        1          -0.000903792    0.002944807   -0.000230446
     20        1          -0.004668061   -0.002522370    0.000278849
     21        1           0.002934478   -0.000401104    0.003268362
     22        1          -0.000773920   -0.002103530    0.000905779
     23        1          -0.001197444    0.000482349   -0.002442676
     24        1           0.002618743    0.004371314   -0.000635398
 -------------------------------------------------------------------
 Cartesian Forces:  Max     0.049348205 RMS     0.010482586
 Leave Link  716 at Fri Mar  6 16:26:58 2026, MaxMem=  2415919104 cpu:               0.1 elap:               0.1
 (Enter /prod/precompiled/gaussian/16c2/g16/l103.exe)

 GradGradGradGradGradGradGradGradGradGradGradGradGradGradGradGradGradGrad
 Berny optimization.
 Step   1 in ReCalcFC=30 IGetFC= 4 recover analytic Hessian.
 Search for a saddle point.
 Step number   1 out of a maximum of  144
 All quantities printed in internal units (Hartrees-Bohrs-Radians)
 Swapping is turned off.
 Second derivative matrix not updated -- analytic derivatives used.
 ITU=  0
     Eigenvalues ---   -0.13397  -0.00036   0.00103   0.00120   0.00452
     Eigenvalues ---    0.00881   0.01161   0.01344   0.01906   0.02015
     Eigenvalues ---    0.02494   0.02570   0.02740   0.02931   0.04396
     Eigenvalues ---    0.04789   0.05145   0.05219   0.05270   0.05371
     Eigenvalues ---    0.05852   0.05983   0.06493   0.07755   0.08119
     Eigenvalues ---    0.08380   0.09979   0.10294   0.10420   0.11986
     Eigenvalues ---    0.12881   0.15657   0.17046   0.18071   0.18500
     Eigenvalues ---    0.19959   0.20701   0.21193   0.21975   0.23350
     Eigenvalues ---    0.25776   0.30193   0.31189   0.35985   0.39976
     Eigenvalues ---    0.41493   0.44378   0.51963   0.58683   0.62696
     Eigenvalues ---    0.66734   0.77734   0.78908   0.83283   0.86502
     Eigenvalues ---    0.87296   0.93144   1.09424   1.10505   1.13261
     Eigenvalues ---    1.13648   1.27510   1.28231   1.32570   1.32708
     Eigenvalues ---    1.64168
 Eigenvectors required to have negative eigenvalues:
                          Y8        Y9        Y10       Y1        X8
   1                    0.93320  -0.19051  -0.14655  -0.11511  -0.09469
                          X10       X9        Y7        Y20       Y11
   1                    0.09423  -0.07249  -0.06908  -0.06590  -0.06477
 Eigenvalue     2 is  -3.57D-04 should be greater than     0.000000 Eigenvector:
                          Z19       Z9        Z3        Z6        Z18
   1                    0.45531  -0.29665  -0.29259   0.28784   0.27209
                          Z22       Z8        Z5        Y12       Z14
   1                    0.24477  -0.19333   0.18326   0.16039   0.15850
 RFO step:  Lambda0=1.443621641D-04 Lambda=-1.97874722D-02.
 Linear search not attempted -- option 19 set.
 Maximum step size (   0.300) exceeded in Quadratic search.
    -- Step size scaled by   0.276
 B after Tr=    -0.000755    0.004016   -0.010613
         Rot=    1.000000   -0.000198   -0.000382    0.000113 Ang=  -0.05 deg.
 Variable       Old X    -DE/DX   Delta X   Delta X   Delta X     New X
                                 (Linear)    (Quad)   (Total)
    X1        2.69795  -0.04935   0.00000  -0.01281  -0.01357   2.68438
    Y1        0.00000   0.01276   0.00000   0.00743   0.01084   0.01084
    Z1        0.00000   0.00103   0.00000  -0.01210  -0.02476  -0.02476
    X2        4.33675   0.01056   0.00000  -0.01160  -0.01286   4.32389
    Y2       -2.11176  -0.01188   0.00000  -0.00225   0.00080  -2.11096
    Z2        0.00000   0.00133   0.00000  -0.03043  -0.04518  -0.04518
    X3        3.35427  -0.00757   0.00000  -0.06198  -0.06403   3.29023
    Y3       -5.24197   0.00474   0.00000   0.01877   0.02210  -5.21988
    Z3       -0.04274  -0.00429   0.00000  -0.10632  -0.12151  -0.16425
    X4        6.97402  -0.00513   0.00000  -0.01597  -0.01709   6.95692
    Y4       -1.79412   0.00513   0.00000  -0.01086  -0.00844  -1.80256
    Z4        0.05742  -0.00017   0.00000  -0.00562  -0.02226   0.03516
    X5        8.04567  -0.00556   0.00000  -0.01309  -0.01358   8.03209
    Y5        0.60499  -0.00389   0.00000  -0.01320  -0.01108   0.59392
    Z5        0.12775  -0.00039   0.00000   0.04966   0.03315   0.16090
    X6        6.48433  -0.01304   0.00000  -0.00545  -0.00545   6.47888
    Y6        2.71229   0.00125   0.00000  -0.00357  -0.00110   2.71119
    Z6        0.11131   0.00011   0.00000   0.08030   0.06582   0.17713
    X7        3.85089   0.01802   0.00000   0.00424   0.00409   3.85498
    Y7        2.40800   0.00301   0.00000   0.00326   0.00637   2.41437
    Z7        0.03453   0.00071   0.00000   0.04339   0.03079   0.06532
    X8        0.00000   0.04401   0.00000   0.03693   0.03614   0.03614
    Y8        0.00000   0.00298   0.00000   0.00369   0.00772   0.00772
    Z8        0.00000   0.00029   0.00000  -0.05553  -0.06617  -0.06617
    X9       -2.35194   0.02817   0.00000   0.04284   0.04199  -2.30995
    Y9        0.00410   0.00331   0.00000  -0.03008  -0.02549  -0.02139
    Z9        0.00000  -0.00671   0.00000  -0.11844  -0.12730  -0.12730
   X10       -3.48274  -0.02180   0.00000   0.00908   0.00790  -3.47485
   Y10       -2.40635  -0.01951   0.00000  -0.02015  -0.01541  -2.42176
   Z10        0.16315   0.00161   0.00000  -0.01038  -0.01931   0.14385
   X11       -2.97774  -0.00589   0.00000   0.01225   0.01213  -2.96561
   Y11       -4.18892  -0.01078   0.00000   0.00548   0.00935  -4.17957
   Z11        2.06421  -0.00239   0.00000   0.00885  -0.00116   2.06305
   X12       -0.74412   0.00205   0.00000   0.01682   0.01860  -0.72552
   Y12       -3.68288   0.00531   0.00000   0.05416   0.05660  -3.62628
   Z12        4.39995   0.00554   0.00000   0.00137  -0.01013   4.38982
   X13       -4.35635  -0.00233   0.00000   0.01066   0.01015  -4.34620
   Y13       -6.45104   0.00513   0.00000   0.01294   0.01705  -6.43398
   Z13        2.19897  -0.00564   0.00000   0.03423   0.02438   2.22335
   X14       -6.26931   0.00460   0.00000   0.01049   0.00854  -6.26077
   Y14       -6.95706   0.00220   0.00000  -0.00176   0.00347  -6.95358
   Z14        0.45890   0.00300   0.00000   0.04082   0.03222   0.49112
   X15       -6.82919   0.00762   0.00000   0.00261  -0.00038  -6.82957
   Y15       -5.19782   0.00928   0.00000  -0.01705  -0.01094  -5.20876
   Z15       -1.40816  -0.00128   0.00000   0.02490   0.01742  -1.39074
   X16       -5.45552  -0.00358   0.00000  -0.00140  -0.00400  -5.45952
   Y16       -2.93792  -0.00805   0.00000  -0.02348  -0.01762  -2.95555
   Z16       -1.54240   0.00622   0.00000   0.00669  -0.00094  -1.54334
   X17        8.20357  -0.00162   0.00000  -0.02346  -0.02498   8.17859
   Y17       -3.44096  -0.00365   0.00000  -0.01865  -0.01650  -3.45746
   Z17        0.05863   0.00003   0.00000  -0.02687  -0.04510   0.01354
   X18       10.08939   0.00281   0.00000  -0.01032  -0.01070  10.07869
   Y18        0.81426  -0.00011   0.00000  -0.01979  -0.01816   0.79611
   Z18        0.19450  -0.00014   0.00000   0.06536   0.04737   0.24187
   X19        7.31158  -0.00090   0.00000  -0.00251  -0.00202   7.30956
   Y19        4.59446   0.00294   0.00000  -0.00421  -0.00196   4.59250
   Z19        0.16341  -0.00023   0.00000   0.11365   0.09928   0.26269
   X20        2.67334  -0.00467   0.00000  -0.01012  -0.00991   2.66343
   Y20        4.09599  -0.00252   0.00000  -0.00594  -0.00255   4.09344
   Z20        0.00715   0.00028   0.00000   0.04217   0.03115   0.03831
   X21       -3.96244   0.00293   0.00000   0.02206   0.02240  -3.94004
   Y21       -7.80939  -0.00040   0.00000   0.03042   0.03385  -7.77554
   Z21        3.68702   0.00327   0.00000   0.04960   0.03891   3.72593
   X22       -7.33546  -0.00077   0.00000   0.01213   0.00990  -7.32556
   Y22       -8.71163  -0.00210   0.00000  -0.00337   0.00205  -8.70958
   Z22        0.58396   0.00091   0.00000   0.05985   0.05137   0.63532
   X23       -8.34794  -0.00120   0.00000  -0.00030  -0.00439  -8.35233
   Y23       -5.56449   0.00048   0.00000  -0.02984  -0.02286  -5.58735
   Z23       -2.74530  -0.00244   0.00000   0.02864   0.02218  -2.72312
   X24       -5.96037   0.00262   0.00000   0.01452   0.01113  -5.94923
   Y24       -1.55089   0.00437   0.00000  -0.02464  -0.01810  -1.56899
   Z24       -2.97397  -0.00064   0.00000  -0.00352  -0.01022  -2.98419
         Item               Value     Threshold  Converged?
 Maximum Force            0.049348     0.000450     NO 
 RMS     Force            0.010483     0.000300     NO 
 Maximum Displacement     0.127303     0.001800     NO 
 RMS     Displacement     0.034550     0.001200     NO 
 Predicted change in Energy=-5.519224D-03
 Lowest energy point so far.  Saving SCF results.
 Step   1 in ReCalcFC=30 IGetFC= 0 compute gradient.
 GradGradGradGradGradGradGradGradGradGradGradGradGradGradGradGradGradGrad

 Leave Link  103 at Fri Mar  6 16:26:58 2026, MaxMem=  2415919104 cpu:               0.1 elap:               0.1
 (Enter /prod/precompiled/gaussian/16c2/g16/l202.exe)
                          Input orientation:                          
 ---------------------------------------------------------------------
 Center     Atomic      Atomic             Coordinates (Angstroms)
 Number     Number       Type             X           Y           Z
 ---------------------------------------------------------------------
      1          6           0        1.420511    0.005739   -0.013102
      2          6           0        2.288104   -1.117071   -0.023908
      3         17           0        1.741117   -2.762239   -0.086919
      4          6           0        3.681445   -0.953874    0.018605
      5          6           0        4.250399    0.314288    0.085143
      6          6           0        3.428477    1.434697    0.093733
      7          6           0        2.039969    1.277628    0.034566
      8          7           0        0.019123    0.004084   -0.035017
      9          7           0       -1.222371   -0.011318   -0.067366
     10          6           0       -1.838809   -1.281540    0.076121
     11          6           0       -1.569333   -2.211732    1.091718
     12         17           0       -0.383929   -1.918944    2.322991
     13          6           0       -2.299908   -3.404718    1.176544
     14          6           0       -3.313056   -3.679678    0.259890
     15          6           0       -3.614052   -2.756359   -0.735947
     16          6           0       -2.889056   -1.564007   -0.816699
     17          1           0        4.327924   -1.829610    0.007163
     18          1           0        5.333412    0.421281    0.127995
     19          1           0        3.868055    2.430247    0.139010
     20          1           0        1.409426    2.166153    0.020271
     21          1           0       -2.084982   -4.114637    1.971679
     22          1           0       -3.876521   -4.608910    0.336199
     23          1           0       -4.419863   -2.956697   -1.441016
     24          1           0       -3.148198   -0.830274   -1.579164
 ---------------------------------------------------------------------
                    Distance matrix (angstroms):
                    1          2          3          4          5
     1  C    0.000000
     2  C    1.418991   0.000000
     3  Cl   2.787461   1.734861   0.000000
     4  C    2.456356   1.403510   2.654467   0.000000
     5  C    2.848354   2.431313   3.973804   1.391535   0.000000
     6  C    2.466833   2.797465   4.527041   2.403104   1.389585
     7  C    1.415522   2.408230   4.052727   2.770253   2.411759
     8  N    1.401561   2.530887   3.258911   3.785917   4.244333
     9  N    2.643494   3.680762   4.043539   4.994318   5.484568
    10  C    3.505455   4.131400   3.877489   5.530269   6.294855
    11  C    3.882908   4.162058   3.556870   5.504948   6.423648
    12  Cl   3.523882   3.645641   3.321842   4.771669   5.610017
    13  C    5.185363   5.265384   4.282406   6.566890   7.611090
    14  C    6.005287   6.166076   5.148459   7.510743   8.555007
    15  C    5.787790   6.166824   5.394359   7.552654   8.482491
    16  C    4.656419   5.256544   4.838061   6.651427   7.437280
    17  H    3.438309   2.160913   2.751404   1.088568   2.146716
    18  H    3.937433   3.415187   4.804745   2.152211   1.089129
    19  H    3.448456   3.886676   5.615766   3.391401   2.150901
    20  H    2.160700   3.399057   4.940704   3.859617   3.391864
    21  H    5.762407   5.664950   4.550367   6.859781   7.956849
    22  H    7.033885   7.094027   5.928497   8.401369   9.505142
    23  H    6.702606   7.098538   6.311027   8.471894   9.391589
    24  H    4.901487   5.661666   5.464859   7.015139   7.669366
                    6          7          8          9         10
     6  C    0.000000
     7  C    1.398616   0.000000
     8  N    3.699585   2.389681   0.000000
     9  N    4.873120   3.509221   1.242010   0.000000
    10  C    5.926429   4.647148   2.262099   1.419172   0.000000
    11  C    6.266621   5.130328   2.950011   2.511111   1.403322
    12  Cl   5.545354   4.618468   3.069314   3.171092   2.751615
    13  C    7.576729   6.485600   4.297175   3.771413   2.435452
    14  C    8.463611   7.299351   4.975991   4.234964   2.821035
    15  C    8.237144   6.988183   4.616417   3.701674   2.446637
    16  C    7.052116   5.752811   3.395208   2.397954   1.407101
    17  H    3.387064   3.858811   4.682946   5.841020   6.191424
    18  H    2.158000   3.404237   5.333133   6.572945   7.371774
    19  H    1.089219   2.163640   4.553113   5.649449   6.808056
    20  H    2.148718   1.089617   2.571098   3.416931   4.737166
    21  H    8.044876   7.060039   5.041622   4.662513   3.417628
    22  H    9.484038   8.351477   6.049260   5.324023   3.910409
    23  H    9.123390   7.863605   5.517939   4.559180   3.430698
    24  H    7.154113   5.827903   3.621113   2.581672   2.158265
                   11         12         13         14         15
    11  C    0.000000
    12  Cl   1.734053   0.000000
    13  C    1.401481   2.681947   0.000000
[...]
 Alpha  occ. eigenvalues --   -1.01447  -0.99797  -0.95677  -0.93767  -0.91566
 Alpha  occ. eigenvalues --   -0.87457  -0.84749  -0.82682  -0.78335  -0.74355
 Alpha  occ. eigenvalues --   -0.72603  -0.70277  -0.66840  -0.65093  -0.60690
 Alpha  occ. eigenvalues --   -0.59429  -0.58402  -0.57737  -0.55212  -0.54251
 Alpha  occ. eigenvalues --   -0.53616  -0.52837  -0.52440  -0.51057  -0.48805
 Alpha  occ. eigenvalues --   -0.48052  -0.47725  -0.45980  -0.45509  -0.43775
 Alpha  occ. eigenvalues --   -0.43475  -0.41826  -0.40811  -0.39019  -0.36696
 Alpha  occ. eigenvalues --   -0.35687  -0.34049  -0.32286  -0.25056
 Alpha virt. eigenvalues --   -0.02732   0.03267   0.05889   0.06489   0.07785
 Alpha virt. eigenvalues --    0.10606   0.12125   0.15151   0.17142   0.17557
 Alpha virt. eigenvalues --    0.19017   0.20762   0.21182   0.21851   0.22180
 Alpha virt. eigenvalues --    0.23382   0.23558   0.25506   0.29825   0.32516
 Alpha virt. eigenvalues --    0.33427   0.34287   0.35038   0.35840   0.36345
 Alpha virt. eigenvalues --    0.37224   0.38916   0.40265   0.41142   0.44963
 Alpha virt. eigenvalues --    0.45815   0.46286   0.47113   0.49412   0.50117
 Alpha virt. eigenvalues --    0.51340   0.52129   0.52691   0.53198   0.53916
 Alpha virt. eigenvalues --    0.55214   0.55435   0.55749   0.57627   0.58554
 Alpha virt. eigenvalues --    0.59686   0.59783   0.60180   0.61360   0.62352
 Alpha virt. eigenvalues --    0.64074   0.65433   0.65937   0.67673   0.67942
 Alpha virt. eigenvalues --    0.69504   0.69603   0.71324   0.72290   0.73103
 Alpha virt. eigenvalues --    0.73484   0.74200   0.74318   0.74917   0.76533
 Alpha virt. eigenvalues --    0.77206   0.77495   0.78222   0.78738   0.79048
 Alpha virt. eigenvalues --    0.79514   0.80487   0.80996   0.82572   0.82944
 Alpha virt. eigenvalues --    0.83686   0.85681   0.86627   0.87335   0.88442
 Alpha virt. eigenvalues --    0.88821   0.89434   0.90769   0.91616   0.92183
 Alpha virt. eigenvalues --    0.94072   0.94233   0.95644   0.95974   0.98972
 Alpha virt. eigenvalues --    1.02074   1.02697   1.02997   1.05184   1.06839
 Alpha virt. eigenvalues --    1.10061   1.11436   1.13641   1.15867   1.18975
 Alpha virt. eigenvalues --    1.21720   1.22989   1.24380   1.24946   1.28306
 Alpha virt. eigenvalues --    1.30195   1.31384   1.31704   1.32472   1.32674
 Alpha virt. eigenvalues --    1.34691   1.35366   1.35635   1.36572   1.36998
 Alpha virt. eigenvalues --    1.38986   1.39272   1.45581   1.48502   1.50380
 Alpha virt. eigenvalues --    1.55941   1.58035   1.58390   1.59315   1.63206
 Alpha virt. eigenvalues --    1.67496   1.72788   1.74572   1.76228   1.77074
 Alpha virt. eigenvalues --    1.79132   1.79656   1.80192   1.82100   1.83154
 Alpha virt. eigenvalues --    1.83537   1.84184   1.84778   1.85119   1.86901
 Alpha virt. eigenvalues --    1.88612   1.89068   1.89904   1.92329   1.95481
 Alpha virt. eigenvalues --    1.97928   1.98242   2.00130   2.01062   2.01630
 Alpha virt. eigenvalues --    2.03230   2.04012   2.06315   2.07541   2.09930
 Alpha virt. eigenvalues --    2.11400   2.12752   2.15899   2.16609   2.18484
 Alpha virt. eigenvalues --    2.20563   2.21191   2.22723   2.25087   2.29065
 Alpha virt. eigenvalues --    2.30081   2.31357   2.33733   2.34043   2.34232
 Alpha virt. eigenvalues --    2.36802   2.37909   2.38445   2.39296   2.40050
 Alpha virt. eigenvalues --    2.42121   2.46368   2.50063   2.52085   2.58240
 Alpha virt. eigenvalues --    2.63062   2.64562   2.68313   2.68426   2.68873
 Alpha virt. eigenvalues --    2.70575   2.72877   2.75912   2.78332   2.81052
 Alpha virt. eigenvalues --    2.81502   2.81960   2.87825   2.89435   2.91364
 Alpha virt. eigenvalues --    2.92419   2.95273   3.04890   3.08344   3.13227
 Alpha virt. eigenvalues --    3.15611   3.20224   3.24107   3.39999   3.46113
 Alpha virt. eigenvalues --    3.60552   3.66527   3.88208
          Condensed to atoms (all electrons):
               1          2          3          4          5          6
     1  C    5.102386   0.240243  -0.067003   0.081807  -0.134110   0.102761
     2  C    0.240243   5.254764   0.242419   0.367138   0.075621  -0.159486
     3  Cl  -0.067003   0.242419  16.963140  -0.041643   0.002280   0.000654
     4  C    0.081807   0.367138  -0.041643   4.941559   0.310989   0.086758
     5  C   -0.134110   0.075621   0.002280   0.310989   5.093318   0.294185
     6  C    0.102761  -0.159486   0.000654   0.086758   0.294185   5.030777
     7  C    0.293606   0.092883   0.001770  -0.116703   0.056641   0.317311
     8  N    0.366575  -0.072341  -0.001839   0.005833  -0.000002   0.008094
     9  N   -0.057194   0.003642  -0.002074  -0.000044  -0.000005  -0.000020
    10  C   -0.001122   0.000632   0.004482  -0.000010  -0.000003   0.000013
    11  C   -0.000260   0.000335   0.000510  -0.000005   0.000001  -0.000001
    12  Cl  -0.007179   0.000748  -0.000003  -0.000450   0.000134  -0.000923
    13  C   -0.000026   0.000018  -0.000068  -0.000000   0.000000  -0.000000
    14  C   -0.000006   0.000001   0.000003   0.000000  -0.000000   0.000000
    15  C    0.000005   0.000000  -0.000024  -0.000000   0.000000   0.000000
    16  C   -0.000264  -0.000060  -0.000507  -0.000001   0.000000   0.000000
    17  H    0.016837  -0.066854   0.000424   0.440930  -0.060006   0.012472
    18  H   -0.001913   0.014751  -0.000100  -0.065101   0.450343  -0.067387
    19  H    0.014387  -0.001140   0.000006   0.012317  -0.065322   0.441282
    20  H   -0.076150   0.016211  -0.000086  -0.002530   0.013925  -0.064007
    21  H    0.000010  -0.000002   0.000000   0.000000   0.000000   0.000000
    22  H    0.000000  -0.000000   0.000000  -0.000000   0.000000  -0.000000
    23  H   -0.000000  -0.000000   0.000000   0.000000  -0.000000   0.000000
    24  H    0.000009  -0.000006   0.000053   0.000000  -0.000000  -0.000000
               7          8          9         10         11         12
     1  C    0.293606   0.366575  -0.057194  -0.001122  -0.000260  -0.007179
     2  C    0.092883  -0.072341   0.003642   0.000632   0.000335   0.000748
     3  Cl   0.001770  -0.001839  -0.002074   0.004482   0.000510  -0.000003
     4  C   -0.116703   0.005833  -0.000044  -0.000010  -0.000005  -0.000450
     5  C    0.056641  -0.000002  -0.000005  -0.000003   0.000001   0.000134
     6  C    0.317311   0.008094  -0.000020   0.000013  -0.000001  -0.000923
     7  C    5.073628  -0.066649   0.003299   0.000550   0.000108   0.010183
     8  N   -0.066649   6.615852   0.304603  -0.084808  -0.007707  -0.001292
     9  N    0.003299   0.304603   6.541619   0.352418  -0.063634  -0.005614
    10  C    0.000550  -0.084808   0.352418   5.213646   0.180684  -0.060551
    11  C    0.000108  -0.007707  -0.063634   0.180684   5.302351   0.259868
    12  Cl   0.010183  -0.001292  -0.005614  -0.060551   0.259868  16.904979
    13  C    0.000015  -0.000945   0.003777   0.084653   0.336678  -0.056497
    14  C   -0.000000   0.000049  -0.000213  -0.137928   0.086459   0.002553
    15  C   -0.000000  -0.000411   0.007553   0.093153  -0.149051   0.000702
    16  C    0.000007   0.006883  -0.074302   0.359873   0.037871   0.001416
    17  H   -0.001706  -0.000073   0.000001  -0.000001  -0.000000  -0.000001
    18  H    0.013170   0.000004  -0.000000   0.000000  -0.000000   0.000000
    19  H   -0.060412  -0.000116  -0.000000  -0.000000   0.000000  -0.000014
    20  H    0.460647  -0.010372   0.000973  -0.000084  -0.000051   0.002074
    21  H   -0.000003   0.000040  -0.000081   0.016048  -0.062895   0.002412
    22  H    0.000000   0.000000   0.000005  -0.001768   0.013801  -0.000114
    23  H   -0.000000   0.000005  -0.000111   0.012796  -0.001361   0.000007
    24  H   -0.000000   0.000315   0.004462  -0.061872   0.021396  -0.000047
              13         14         15         16         17         18
     1  C   -0.000026  -0.000006   0.000005  -0.000264   0.016837  -0.001913
     2  C    0.000018   0.000001   0.000000  -0.000060  -0.066854   0.014751
     3  Cl  -0.000068   0.000003  -0.000024  -0.000507   0.000424  -0.000100
     4  C   -0.000000   0.000000  -0.000000  -0.000001   0.440930  -0.065101
     5  C    0.000000  -0.000000   0.000000   0.000000  -0.060006   0.450343
     6  C   -0.000000   0.000000   0.000000   0.000000   0.012472  -0.067387
     7  C    0.000015  -0.000000  -0.000000   0.000007  -0.001706   0.013170
     8  N   -0.000945   0.000049  -0.000411   0.006883  -0.000073   0.000004
     9  N    0.003777  -0.000213   0.007553  -0.074302   0.000001  -0.000000
    10  C    0.084653  -0.137928   0.093153   0.359873  -0.000001   0.000000
    11  C    0.336678   0.086459  -0.149051   0.037871  -0.000000  -0.000000
    12  Cl  -0.056497   0.002553   0.000702   0.001416  -0.000001   0.000000
    13  C    4.978850   0.311275   0.075352  -0.102207   0.000000  -0.000000
    14  C    0.311275   5.043532   0.277969   0.074626  -0.000000  -0.000000
    15  C    0.075352   0.277969   5.095897   0.280215   0.000000  -0.000000
    16  C   -0.102207   0.074626   0.280215   5.034239   0.000000  -0.000000
    17  H    0.000000  -0.000000   0.000000   0.000000   0.650794  -0.011530
    18  H   -0.000000  -0.000000  -0.000000  -0.000000  -0.011530   0.660798
    19  H   -0.000000  -0.000000   0.000000  -0.000000  -0.000233  -0.011041
    20  H    0.000003  -0.000000   0.000000   0.000003   0.000011  -0.000190
    21  H    0.439485  -0.057487   0.012358  -0.002048  -0.000000  -0.000000
    22  H   -0.059668   0.444951  -0.063370   0.012371  -0.000000   0.000000
    23  H    0.011889  -0.063721   0.449322  -0.062121   0.000000  -0.000000
    24  H   -0.003062   0.012464  -0.068791   0.435778  -0.000000   0.000000
              19         20         21         22         23         24
     1  C    0.014387  -0.076150   0.000010   0.000000  -0.000000   0.000009
     2  C   -0.001140   0.016211  -0.000002  -0.000000  -0.000000  -0.000006
     3  Cl   0.000006  -0.000086   0.000000   0.000000   0.000000   0.000053
     4  C    0.012317  -0.002530   0.000000  -0.000000   0.000000   0.000000
     5  C   -0.065322   0.013925   0.000000   0.000000  -0.000000  -0.000000
     6  C    0.441282  -0.064007   0.000000  -0.000000   0.000000  -0.000000
     7  C   -0.060412   0.460647  -0.000003   0.000000  -0.000000  -0.000000
     8  N   -0.000116  -0.010372   0.000040   0.000000   0.000005   0.000315
     9  N   -0.000000   0.000973  -0.000081   0.000005  -0.000111   0.004462
    10  C   -0.000000  -0.000084   0.016048  -0.001768   0.012796  -0.061872
    11  C    0.000000  -0.000051  -0.062895   0.013801  -0.001361   0.021396
    12  Cl  -0.000014   0.002074   0.002412  -0.000114   0.000007  -0.000047
    13  C   -0.000000   0.000003   0.439485  -0.059668   0.011889  -0.003062
    14  C   -0.000000  -0.000000  -0.057487   0.444951  -0.063721   0.012464
    15  C    0.000000   0.000000   0.012358  -0.063370   0.449322  -0.068791
    16  C   -0.000000   0.000003  -0.002048   0.012371  -0.062121   0.435778
    17  H   -0.000233   0.000011  -0.000000  -0.000000   0.000000  -0.000000
    18  H   -0.011041  -0.000190  -0.000000   0.000000  -0.000000   0.000000
    19  H    0.658391  -0.012229   0.000000  -0.000000   0.000000   0.000000
    20  H   -0.012229   0.662935  -0.000000   0.000000  -0.000000  -0.000001
    21  H    0.000000  -0.000000   0.633532  -0.011065  -0.000177   0.000028
    22  H   -0.000000   0.000000  -0.011065   0.635162  -0.010307  -0.000180
    23  H    0.000000  -0.000000  -0.000177  -0.010307   0.635897  -0.009728
    24  H    0.000000  -0.000001   0.000028  -0.000180  -0.009728   0.636276
 Mulliken charges:
               1
     1  C    0.126601
     2  C   -0.009516
     3  Cl  -0.102395
     4  C   -0.020844
     5  C   -0.037988
     6  C   -0.002482
     7  C   -0.078343
     8  N   -0.061698
     9  N   -0.019060
    10  C    0.029202
    11  C    0.044903
    12  Cl  -0.052391
    13  C   -0.019522
    14  C    0.005471
    15  C   -0.010879
    16  C   -0.001771
    17  H    0.018936
    18  H    0.018197
    19  H    0.024123
    20  H    0.008918
    21  H    0.029844
    22  H    0.040181
    23  H    0.037610
    24  H    0.032905
 Sum of Mulliken charges =  -0.00000
 Mulliken charges with hydrogens summed into heavy atoms:
               1
     1  C    0.126601
     2  C   -0.009516
     3  Cl  -0.102395
     4  C   -0.001908
     5  C   -0.019791
     6  C    0.021641
     7  C   -0.069425
     8  N   -0.061698
     9  N   -0.019060
    10  C    0.029202
    11  C    0.044903
    12  Cl  -0.052391
    13  C    0.010322
    14  C    0.045653
    15  C    0.026731
    16  C    0.031134
 APT charges:
               1
     1  C   -0.481071
     2  C   -0.169187
     3  Cl   0.033635
     4  C   -0.525605
     5  C   -0.602467
     6  C   -0.439540
     7  C   -0.444873
     8  N   -0.153359
     9  N    0.022672
    10  C   -0.713165
    11  C   -0.446376
    12  Cl   0.028446
    13  C   -0.455640
    14  C   -0.547116
    15  C   -0.554774
    16  C   -0.307771
    17  H    0.843416
    18  H    0.991702
    19  H    0.640785
    20  H    0.137602
    21  H    0.653454
    22  H    1.129965
    23  H    1.001063
    24  H    0.358204
 Sum of APT charges =  -0.00000
 APT charges with hydrogens summed into heavy atoms:
               1
     1  C   -0.481071
     2  C   -0.169187
     3  Cl   0.033635
     4  C    0.317810
     5  C    0.389235
     6  C    0.201245
     7  C   -0.307271
     8  N   -0.153359
     9  N    0.022672
    10  C   -0.713165
    11  C   -0.446376
    12  Cl   0.028446
    13  C    0.197814
    14  C    0.582849
    15  C    0.446288
    16  C    0.050433
 Electronic spatial extent (au):  <R**2>=           5185.5605
 Charge=             -0.0000 electrons
 Dipole moment (field-independent basis, Debye):
    X=             -2.6211    Y=             -1.2123    Z=              1.2559  Tot=              3.1492
 Quadrupole moment (field-independent basis, Debye-Ang):
   XX=            -92.0127   YY=            -97.5739   ZZ=           -104.5201
   XY=             11.7809   XZ=              2.4324   YZ=              0.1022
 Traceless Quadrupole moment (field-independent basis, Debye-Ang):
   XX=              6.0229   YY=              0.4617   ZZ=             -6.4845
   XY=             11.7809   XZ=              2.4324   YZ=              0.1022
 Octapole moment (field-independent basis, Debye-Ang**2):
  XXX=            -78.5342  YYY=            361.5864  ZZZ=            -10.8201  XYY=            -64.3941
  XXY=             84.1461  XXZ=             -4.9684  XZZ=            -39.9004  YZZ=            119.1738
  YYZ=             10.6855  XYZ=              9.4189
 Hexadecapole moment (field-independent basis, Debye-Ang**3):
 XXXX=          -3609.9397 YYYY=          -2054.2268 ZZZZ=          -1006.3574 XXXY=           -446.0913
 XXXZ=            205.3960 YYYX=           -446.4612 YYYZ=            -71.4877 ZZZX=            162.9703
 ZZZY=            -43.3648 XXYY=           -845.6340 XXZZ=           -807.4277 YYZZ=           -483.2403
 XXYZ=             15.9579 YYXZ=             32.6810 ZZXY=           -150.3739
 N-N= 1.226569216471D+03 E-N=-5.963265797792D+03  KE= 1.483120775847D+03
  Exact polarizability:       0.000       0.000       0.000       0.000       0.000       0.000
 Approx polarizability:     235.399      44.690     166.102      30.341      18.701     166.095
 No NMR shielding tensors so no spin-rotation constants.
 Leave Link  601 at Fri Mar  6 16:49:15 2026, MaxMem=  2415919104 cpu:               0.7 elap:               0.2
 (Enter /prod/precompiled/gaussian/16c2/g16/l716.exe)
 Dipole        =-1.03122761D+00-4.76953642D-01 4.94116545D-01
 Polarizability= 0.00000000D+00 0.00000000D+00 0.00000000D+00
                 0.00000000D+00 0.00000000D+00 0.00000000D+00
 -------------------------------------------------------------------
 Center     Atomic                   Forces (Hartrees/Bohr)
 Number     Number              X              Y              Z
 -------------------------------------------------------------------
      1        6           0.000002270    0.000001819   -0.000000509
      2        6           0.000000568    0.000000507   -0.000000317
      3       17          -0.000000697   -0.000001945   -0.000003631
      4        6          -0.000000260   -0.000000227   -0.000001100
      5        6           0.000000400    0.000001652    0.000000315
      6        6          -0.000000004   -0.000000334   -0.000000719
      7        6           0.000000971    0.000001287    0.000000461
      8        7          -0.000003488   -0.000003973    0.000002083
      9        7           0.000003005    0.000007066   -0.000001679
     10        6          -0.000008436   -0.000003098   -0.000000502
     11        6          -0.000006396   -0.000005939   -0.000006668
     12       17           0.000005772    0.000001091    0.000003928
     13        6          -0.000005824    0.000000666   -0.000017904
     14        6           0.000000668   -0.000002016    0.000005334
     15        6          -0.000018293   -0.000017089   -0.000015012
     16        6           0.000005288    0.000009574   -0.000002420
     17        1           0.000000562   -0.000000416   -0.000000243
     18        1           0.000000317    0.000000511   -0.000000103
     19        1          -0.000000230    0.000000344   -0.000000786
     20        1           0.000000626   -0.000001057   -0.000001050
     21        1           0.000001680   -0.000001641    0.000018099
     22        1           0.000004666    0.000005132   -0.000000780
     23        1           0.000014834    0.000008624    0.000012945
     24        1           0.000001999   -0.000000538    0.000010256
 -------------------------------------------------------------------
 Cartesian Forces:  Max     0.000018293 RMS     0.000006127
 Leave Link  716 at Fri Mar  6 16:49:15 2026, MaxMem=  2415919104 cpu:               0.0 elap:               0.1
 (Enter /prod/precompiled/gaussian/16c2/g16/l9999.exe)
 Unable to Open any file for archive entry.
 1\1\GINC-AMD37\FTS\RwB97XD\def2SVP\C12H8Cl2N2\SVELA\06-Mar-2026\0\\#p 
 nosymm scf=(maxconventionalcycles=200,xqc) wB97XD def2SVP opt=(TS,NoEi
 genTest,RecalcFC=30,Cartesian,SkipDihedral,MaxCycles=300)\\Title Card\
 \0,1\C,1.4675309084,-0.0676936708,-0.3093447329\C,2.4480722091,-0.9726
 981827,-0.7915967703\Cl,1.9202913304,-2.3044795067,-1.7858715303\C,3.7
 883006447,-0.8021833779,-0.4772224312\C,4.1979051519,0.2467098153,0.34
 51137804\C,3.2384349589,1.1285296186,0.8441988797\C,1.8943639207,0.992
 8955092,0.5261076249\N,0.1916356151,-0.2348105456,-0.6266884646\N,-0.9
 559367423,-0.4306421876,-0.9668418361\C,-1.7261589243,-1.4333534193,-0
 .2764782079\C,-1.5539440808,-1.8943276713,1.0388043792\Cl,-0.342608130
 2,-1.2432954228,2.1004077007\C,-2.4077093608,-2.8730716793,1.546863842
 5\C,-3.422776617,-3.4005709721,0.7527429819\C,-3.6115390313,-2.9375071
 575,-0.5490945858\C,-2.7752150277,-1.9462230686,-1.0456404798\H,4.5096
 161668,-1.5161460274,-0.8786824916\H,5.2528128989,0.3684984709,0.59301
 58957\H,3.5403247901,1.9526473304,1.494385685\H,1.1488741424,1.6877628
 424,0.9128999788\H,-2.2667357417,-3.2136922678,2.5736083867\H,-4.07764
 8097,-4.1714509692,1.1637023123\H,-4.413457544,-3.3408143939,-1.169519
 3187\H,-2.8965474402,-1.5415740664,-2.0523815984\\Version=ES64L-G16Rev
 C.02\HF=-1490.9841117\RMSD=2.994e-09\RMSF=6.127e-06\Dipole=-1.0312276,
 -0.4769536,0.4941165\Polar=0.,0.,0.,0.,0.,0.\Quadrupole=4.4778515,0.34
 32525,-4.821104,8.758846,1.8084001,0.0759547\PG=C01 [X(C12H8Cl2N2)]\\@
 The archive entry for this job was punched.


 FESTINA LENTE!
     - IMPERATOR AUGUSTUS 
 Job cpu time:       0 days  3 hours 55 minutes  4.8 seconds.
 Elapsed time:       0 days  0 hours 23 minutes 46.2 seconds.
 File lengths (MBytes):  RWF=    245 Int=      0 D2E=      0 Chk=      7 Scr=      1
 Normal termination of Gaussian 16 at Fri Mar  6 16:49:15 2026.
