 Entering Gaussian System, Link 0=g16
 Initial command:
 /prod/precompiled/gaussian/16c2/g16/l1.exe "/scratch/ucsscms/svela/2076366/Gau-972343.inp" -scrdir="/scratch/ucsscms/svela/2076366/"
 Entering Link 1 = /prod/precompiled/gaussian/16c2/g16/l1.exe PID=    972345.
  
 Copyright (c) 1988-2021, Gaussian, Inc.  All Rights Reserved.
  
 This is part of the Gaussian(R) 16 program.  It is based on
 the Gaussian(R) 09 system (copyright 2009, Gaussian, Inc.),
 the Gaussian(R) 03 system (copyright 2003, Gaussian, Inc.),
 the Gaussian(R) 98 system (copyright 1998, Gaussian, Inc.),
 the Gaussian(R) 94 system (copyright 1995, Gaussian, Inc.),
 the Gaussian 92(TM) system (copyright 1992, Gaussian, Inc.),
 the Gaussian 90(TM) system (copyright 1990, Gaussian, Inc.),
 the Gaussian 88(TM) system (copyright 1988, Gaussian, Inc.),
 the Gaussian 86(TM) system (copyright 1986, Carnegie Mellon
 University), and the Gaussian 82(TM) system (copyright 1983,
 Carnegie Mellon University). Gaussian is a federally registered
 trademark of Gaussian, Inc.
  
 This software contains proprietary and confidential information,
 including trade secrets, belonging to Gaussian, Inc.
  
 This software is provided under written license and may be
 used, copied, transmitted, or stored only in accord with that
 written license.
  
 The following legend is applicable only to US Government
 contracts under FAR:
  
                    RESTRICTED RIGHTS LEGEND
  
 Use, reproduction and disclosure by the US Government is
 subject to restrictions as set forth in subparagraphs (a)
 and (c) of the Commercial Computer Software - Restricted
 Rights clause in FAR 52.227-19.
  
 Gaussian, Inc.
 340 Quinnipiac St., Bldg. 40, Wallingford CT 06492
  
  
 ---------------------------------------------------------------
 Warning -- This program may not be used in any manner that
 competes with the business of Gaussian, Inc. or will provide
 assistance to any competitor of Gaussian, Inc.  The licensee
 of this program is prohibited from giving any competitor of
 Gaussian, Inc. access to this program.  By using this program,
 the user acknowledges that Gaussian, Inc. is engaged in the
 business of creating and licensing software in the field of
 computational chemistry and represents and warrants to the
 licensee that it is not a competitor of Gaussian, Inc. and that
 it will not use this program in any manner prohibited above.
 ---------------------------------------------------------------
  

 Cite this work as:
 Gaussian 16, Revision C.02,
 M. J. Frisch, G. W. Trucks, H. B. Schlegel, G. E. Scuseria, 
 M. A. Robb, J. R. Cheeseman, G. Scalmani, V. Barone, 
 G. A. Petersson, H. Nakatsuji, X. Li, M. Caricato, A. V. Marenich, 
 J. Bloino, B. G. Janesko, R. Gomperts, B. Mennucci, H. P. Hratchian, 
 J. V. Ortiz, A. F. Izmaylov, J. L. Sonnenberg, D. Williams-Young, 
 F. Ding, F. Lipparini, F. Egidi, J. Goings, B. Peng, A. Petrone, 
 T. Henderson, D. Ranasinghe, V. G. Zakrzewski, J. Gao, N. Rega, 
 G. Zheng, W. Liang, M. Hada, M. Ehara, K. Toyota, R. Fukuda, 
 J. Hasegawa, M. Ishida, T. Nakajima, Y. Honda, O. Kitao, H. Nakai, 
 T. Vreven, K. Throssell, J. A. Montgomery, Jr., J. E. Peralta, 
 F. Ogliaro, M. J. Bearpark, J. J. Heyd, E. N. Brothers, K. N. Kudin, 
 V. N. Staroverov, T. A. Keith, R. Kobayashi, J. Normand, 
 K. Raghavachari, A. P. Rendell, J. C. Burant, S. S. Iyengar, 
 J. Tomasi, M. Cossi, J. M. Millam, M. Klene, C. Adamo, R. Cammi, 
 J. W. Ochterski, R. L. Martin, K. Morokuma, O. Farkas, 
 J. B. Foresman, and D. J. Fox, Gaussian, Inc., Wallingford CT, 2019.
 
 ******************************************
 Gaussian 16:  ES64L-G16RevC.02  7-Dec-2021
                 6-Mar-2026 
 ******************************************
 %nprocs=12
 Will use up to   12 processors via shared memory.
 %mem=18gb
 %chk=test_tsinv_r_a_ts_r1.chk
 ----------------------------------------------------------------------
 #p nosymm scf=(maxconventionalcycles=200,xqc) wB97XD def2SVP opt=(TS,N
 oEigenTest,RecalcFC=30,Cartesian,SkipDihedral,MaxCycles=300)
 ----------------------------------------------------------------------
 1/5=1,6=300,10=7,11=1,18=10,26=3,38=1,71=30,156=2/1,3;
 2/12=2,15=1,17=6,18=5,29=2,40=1/2;
 3/5=43,7=101,11=2,25=1,30=1,71=2,74=-58,140=1/1,2,3;
 4//1;
 5/5=2,8=3,13=1,38=5,85=200/2,8;
 8/6=4,10=90,11=11/1;
 11/6=1,8=1,9=11,15=111,16=1,31=1/1,2,10;
 10/6=1,31=1/2;
 6/7=2,8=2,9=2,10=2,28=1/1;
 7/7=1,10=1,25=1,30=1/1,2,3,16;
 1/5=1,6=300,10=7,11=1,18=10,26=3,71=30,156=2/3(3);
 2/15=1,29=1/2;
 7/7=1,9=1,25=1,30=1,44=-1/16;
 99/12=1/99;
 2/15=1,29=1/2;
 3/5=43,7=101,11=2,25=1,30=1,71=2,74=-58,140=1/1,2,3;
 4/5=5,16=3,69=1/1;
 5/5=2,8=3,13=1,38=5,85=200/2,8;
 8/6=4,10=90,11=11/1;
 11/6=1,8=1,9=11,15=111,16=1,31=1/1,2,10;
 10/6=1,31=1/2;
 7/7=1,10=1,25=1,30=1/1,2,3,16;
 1/5=1,6=300,11=1,18=10,26=3,71=30,156=2/3(-8);
 2/15=1,29=1/2;
 6/7=2,8=2,9=2,10=2,19=2,28=1/1;
 7/7=1,9=1,25=1,30=1,44=-1/16;
 99/9=1,12=1/99;
 Leave Link    1 at Fri Mar  6 16:25:20 2026, MaxMem=  2415919104 cpu:               0.2 elap:               0.7
 (Enter /prod/precompiled/gaussian/16c2/g16/l101.exe)
 ----------
 Title Card
 ----------
 Symbolic Z-matrix:
 Charge =  0 Multiplicity = 1
 C                    -1.82433   1.29954  -0.0881 
 C                    -1.16239   2.54871  -0.04063 
 Cl                    0.55434   2.75384   0.11866 
 C                    -1.88489   3.75277  -0.11174 
 C                    -3.27127   3.74966  -0.22447 
 C                    -3.94678   2.53867  -0.28291 
 C                    -3.2304    1.33337  -0.22274 
 N                    -1.24459  -0.00217   0. 
 N                     0.        0.        0. 
 C                     1.41159   0.        0. 
 C                     2.21222  -0.99958   0.57711 
 Cl                    1.54478  -2.33982   1.44591 
 C                     3.60755  -0.97541   0.42633 
 C                     4.22233   0.03625  -0.3105 
 C                     3.44626   1.02076  -0.90972 
 C                     2.05312   0.99657  -0.76081 
 H                    -1.35834   4.70356  -0.0725 
 H                    -3.81473   4.69097  -0.2661 
 H                    -5.03136   2.5297   -0.37252 
 H                    -3.7864    0.39846  -0.27941 
 H                     4.21689  -1.7583    0.86904 
 H                     5.30455   0.04404  -0.42668 
 H                     3.91901   1.80007  -1.5042 
 H                     1.45678   1.75435  -1.26493 
 
 ITRead=  0  0  0  0  0  0  0  0  0  0  0  0  0  0  0  0  0  0  0  0
 ITRead=  0  0  0  0
 MicOpt= -1 -1 -1 -1 -1 -1 -1 -1 -1 -1 -1 -1 -1 -1 -1 -1 -1 -1 -1 -1
 MicOpt= -1 -1 -1 -1
 NAtoms=     24 NQM=       24 NQMF=       0 NMMI=      0 NMMIF=      0
                NMic=       0 NMicF=      0.
                    Isotopes and Nuclear Properties:
 (Nuclear quadrupole moments (NQMom) in fm**2, nuclear magnetic moments (NMagM)
  in nuclear magnetons)

  Atom         1           2           3           4           5           6           7           8           9          10
 IAtWgt=          12          12          35          12          12          12          12          14          14          12
 AtmWgt=  12.0000000  12.0000000  34.9688527  12.0000000  12.0000000  12.0000000  12.0000000  14.0030740  14.0030740  12.0000000
 NucSpn=           0           0           3           0           0           0           0           2           2           0
 AtZEff=  -0.0000000  -0.0000000  -0.0000000  -0.0000000  -0.0000000  -0.0000000  -0.0000000  -0.0000000  -0.0000000  -0.0000000
 NQMom=    0.0000000   0.0000000  -8.1650000   0.0000000   0.0000000   0.0000000   0.0000000   2.0440000   2.0440000   0.0000000
 NMagM=    0.0000000   0.0000000   0.8218740   0.0000000   0.0000000   0.0000000   0.0000000   0.4037610   0.4037610   0.0000000
 AtZNuc=   6.0000000   6.0000000  17.0000000   6.0000000   6.0000000   6.0000000   6.0000000   7.0000000   7.0000000   6.0000000

  Atom        11          12          13          14          15          16          17          18          19          20
 IAtWgt=          12          35          12          12          12          12           1           1           1           1
 AtmWgt=  12.0000000  34.9688527  12.0000000  12.0000000  12.0000000  12.0000000   1.0078250   1.0078250   1.0078250   1.0078250
 NucSpn=           0           3           0           0           0           0           1           1           1           1
 AtZEff=  -0.0000000  -0.0000000  -0.0000000  -0.0000000  -0.0000000  -0.0000000  -0.0000000  -0.0000000  -0.0000000  -0.0000000
 NQMom=    0.0000000  -8.1650000   0.0000000   0.0000000   0.0000000   0.0000000   0.0000000   0.0000000   0.0000000   0.0000000
 NMagM=    0.0000000   0.8218740   0.0000000   0.0000000   0.0000000   0.0000000   2.7928460   2.7928460   2.7928460   2.7928460
 AtZNuc=   6.0000000  17.0000000   6.0000000   6.0000000   6.0000000   6.0000000   1.0000000   1.0000000   1.0000000   1.0000000

  Atom        21          22          23          24
 IAtWgt=           1           1           1           1
 AtmWgt=   1.0078250   1.0078250   1.0078250   1.0078250
 NucSpn=           1           1           1           1
 AtZEff=  -0.0000000  -0.0000000  -0.0000000  -0.0000000
 NQMom=    0.0000000   0.0000000   0.0000000   0.0000000
 NMagM=    2.7928460   2.7928460   2.7928460   2.7928460
 AtZNuc=   1.0000000   1.0000000   1.0000000   1.0000000
 Leave Link  101 at Fri Mar  6 16:25:20 2026, MaxMem=  2415919104 cpu:               0.1 elap:               0.1
 (Enter /prod/precompiled/gaussian/16c2/g16/l103.exe)

 GradGradGradGradGradGradGradGradGradGradGradGradGradGradGradGradGradGrad
 Berny optimization.
 Initialization pass.
 No Z-matrix variables, so optimization will use Cartesian coordinates.
 Trust Radius=3.00D-01 FncErr=1.00D-07 GrdErr=1.00D-06 EigMax=2.50D+02 EigMin=1.00D-04
 Number of steps in this run=    144 maximum allowed number of steps=    144.
 Search for a saddle point of order  1.
 Step   0 in ReCalcFC=30 IGetFC= 4 compute analytic Hessian.
 GradGradGradGradGradGradGradGradGradGradGradGradGradGradGradGradGradGrad

 Leave Link  103 at Fri Mar  6 16:25:20 2026, MaxMem=  2415919104 cpu:               0.1 elap:               0.1
 (Enter /prod/precompiled/gaussian/16c2/g16/l202.exe)
 ---------------------------------------------------------------------------------------------------
                            Z-MATRIX (ANGSTROMS AND DEGREES)
   CD    Cent   Atom    N1       Length/X        N2       Alpha/Y        N3        Beta/Z          J
 ---------------------------------------------------------------------------------------------------
      1      1  C        0  -1.824334          1.299537         -0.088103
      2      2  C        0  -1.162387          2.548706         -0.040633
      3      3  Cl       0   0.554340          2.753840          0.118660
      4      4  C        0  -1.884894          3.752765         -0.111740
      5      5  C        0  -3.271270          3.749664         -0.224471
      6      6  C        0  -3.946781          2.538671         -0.282905
      7      7  C        0  -3.230402          1.333365         -0.222744
      8      8  N        0  -1.244593         -0.002172          0.000000
      9      9  N        0   0.000000          0.000000          0.000000
     10     10  C        0   1.411589          0.000000          0.000000
     11     11  C        0   2.212223         -0.999584          0.577110
     12     12  Cl       0   1.544783         -2.339822          1.445912
     13     13  C        0   3.607550         -0.975406          0.426330
     14     14  C        0   4.222327          0.036253         -0.310503
     15     15  C        0   3.446259          1.020761         -0.909716
     16     16  C        0   2.053121          0.996566         -0.760810
     17     17  H        0  -1.358338          4.703555         -0.072503
     18     18  H        0  -3.814729          4.690969         -0.266104
     19     19  H        0  -5.031360          2.529698         -0.372521
     20     20  H        0  -3.786403          0.398459         -0.279410
     21     21  H        0   4.216889         -1.758296          0.869042
     22     22  H        0   5.304549          0.044041         -0.426677
     23     23  H        0   3.919010          1.800073         -1.504204
     24     24  H        0   1.456782          1.754347         -1.264931
 ---------------------------------------------------------------------------------------------------
                         Z-Matrix orientation:                         
 ---------------------------------------------------------------------
 Center     Atomic      Atomic             Coordinates (Angstroms)
 Number     Number       Type             X           Y           Z
 ---------------------------------------------------------------------
      1          6           0       -1.824334    1.299537   -0.088103
      2          6           0       -1.162387    2.548706   -0.040633
      3         17           0        0.554340    2.753840    0.118660
      4          6           0       -1.884894    3.752765   -0.111740
      5          6           0       -3.271270    3.749664   -0.224471
      6          6           0       -3.946781    2.538671   -0.282905
      7          6           0       -3.230402    1.333365   -0.222744
      8          7           0       -1.244593   -0.002172    0.000000
      9          7           0        0.000000    0.000000    0.000000
     10          6           0        1.411589    0.000000    0.000000
     11          6           0        2.212223   -0.999584    0.577110
     12         17           0        1.544783   -2.339822    1.445912
     13          6           0        3.607550   -0.975406    0.426330
     14          6           0        4.222327    0.036253   -0.310503
     15          6           0        3.446259    1.020761   -0.909716
     16          6           0        2.053121    0.996566   -0.760810
     17          1           0       -1.358338    4.703555   -0.072503
     18          1           0       -3.814729    4.690969   -0.266104
     19          1           0       -5.031360    2.529698   -0.372521
     20          1           0       -3.786403    0.398459   -0.279410
     21          1           0        4.216889   -1.758296    0.869042
     22          1           0        5.304549    0.044041   -0.426677
     23          1           0        3.919010    1.800073   -1.504204
     24          1           0        1.456782    1.754347   -1.264931
 ---------------------------------------------------------------------
                    Distance matrix (angstroms):
                    1          2          3          4          5
     1  C    0.000000
     2  C    1.414514   0.000000
     3  Cl   2.795682   1.736262   0.000000
     4  C    2.454089   1.405998   2.645902   0.000000
     5  C    2.848744   2.433821   3.967959   1.390955   0.000000
     6  C    2.465397   2.794932   4.524118   2.398896   1.387888
     7  C    1.412905   2.405599   4.056917   2.770597   2.416645
     8  N    1.427693   2.552526   3.293303   3.810777   4.270138
     9  N    2.241596   2.801553   2.811585   4.201018   4.981122
    10  C    3.488231   3.622555   2.886623   4.996252   6.003294
    11  C    4.692788   4.935581   4.128795   6.312345   7.298396
    12  Cl   5.191251   5.782412   5.356115   7.163001   7.941435
    13  C    5.911461   5.948926   4.829496   7.267191   8.370663
    14  C    6.181218   5.948142   4.585149   7.151931   8.363661
    15  C    5.341527   4.932498   3.524814   6.043327   7.282971
    16  C    3.947022   3.642428   2.471401   4.850349   6.018002
    17  H    3.435802   2.163975   2.737932   1.087567   2.142968
    18  H    3.936390   3.416877   4.794713   2.151353   1.087721
    19  H    3.446622   3.883228   5.611733   3.385875   2.146661
    20  H    2.167546   3.400888   4.954627   3.859432   3.391011
    21  H    6.838336   6.950855   5.859753   8.280428   9.359803
    22  H    7.246508   6.945764   5.495897   8.095796   9.344367
    23  H    5.936487   5.340701   3.855433   6.279910   7.559018
    24  H    3.515323   2.998326   1.930728   4.060828   5.236251
                    6          7          8          9         10
     6  C    0.000000
     7  C    1.403418   0.000000
     8  N    3.719911   2.403479   0.000000
     9  N    4.701273   3.501853   1.244595   0.000000
    10  C    5.936077   4.834828   2.656183   1.411589   0.000000
    11  C    7.154873   5.975331   3.643825   2.495226   1.404720
    12  Cl   7.546243   6.251328   3.916106   3.154645   2.753755
    13  C    8.361798   7.246331   4.967115   3.761328   2.440373
    14  C    8.543839   7.565274   5.475865   4.233884   2.828069
    15  C    7.573241   6.719186   4.886519   3.707592   2.451411
    16  C    6.213317   5.321519   3.528630   2.405677   1.408382
    17  H    3.380980   3.858157   4.707660   4.896302   5.459046
    18  H    2.156411   3.408346   5.357423   6.052120   7.027830
    19  H    1.088312   2.167278   4.570420   5.643822   6.931792
    20  H    2.146215   1.089219   2.588315   3.817550   5.220724
    21  H    9.297119   8.137107   5.802326   4.650698   3.422944
    22  H    9.582847   8.634196   6.563189   5.321864   3.916520
    23  H    7.994233   7.278327   5.672170   4.567443   3.433665
    24  H    5.547795   4.820070   3.461623   2.607681   2.163291
                   11         12         13         14         15
    11  C    0.000000
    12  Cl   1.731049   0.000000
    13  C    1.403658   2.675105   0.000000
    14  C    2.429266   3.987476   1.394391   0.000000
    15  C    2.795584   4.523064   2.407429   1.389458   0.000000
    16  C    2.408310   4.032309   2.777449   2.414629   1.401282
    17  H    6.759933   7.768066   7.560389   7.279023   6.111305
    18  H    8.331720   9.004854   9.363626   9.287767   8.161287
    19  H    8.113392   8.382397   9.357066   9.583936   8.627601
    20  H    6.218655   6.236703   7.553550   8.016977   7.286696
    21  H    2.163228   2.794835   1.086372   2.147501   3.388364
    22  H    3.414560   4.829620   2.155620   1.088468   2.154194
    23  H    3.883693   5.610603   3.395181   2.151275   1.088226
    24  H    3.398226   4.911073   3.864934   3.392789   2.149964
                   16         17         18         19         20
    16  C    0.000000
    17  H    5.084642   0.000000
    18  H    6.951619   2.464041   0.000000
    19  H    7.258866   4.278639   2.482460   0.000000
    20  H    5.889781   4.946935   4.292624   2.469973   0.000000
    21  H    3.863622   8.586337  10.362840  10.269298   8.367988
    22  H    3.404517   8.138217  10.236257  10.630731   9.099050
    23  H    2.163285   6.191153   8.348706   9.051087   7.927044
    24  H    1.088113   4.247895   6.116390   6.594964   5.504605
                   21         22         23         24
    21  H    0.000000
    22  H    2.471904   0.000000
    23  H    4.287542   2.482827   0.000000
    24  H    4.950827   4.293382   2.474249   0.000000
 Symmetry turned off by external request.
 Stoichiometry    C12H8Cl2N2
 Framework group  C1[X(C12H8Cl2N2)]
 Deg. of freedom    66
 Full point group                 C1      NOp   1
 Rotational constants (GHZ):           0.9045625           0.2647809           0.2130714
 Leave Link  202 at Fri Mar  6 16:25:20 2026, MaxMem=  2415919104 cpu:               0.1 elap:               0.1
 (Enter /prod/precompiled/gaussian/16c2/g16/l301.exe)
 Standard basis: def2SVP (5D, 7F)
 Ernie: Thresh=  0.10000D-02 Tol=  0.10000D-05 Strict=F.
   272 basis functions,   480 primitive gaussians,   288 cartesian basis functions
    64 alpha electrons       64 beta electrons
       nuclear repulsion energy      1218.7129776050 Hartrees.
 IExCor= 4639 DFT=T Ex+Corr=wB97XD ExCW=0 ScaHFX=  1.000000
 ScaDFX=  1.000000  1.000000  1.000000  1.000000 ScalE2=  1.000000  1.000000
 IRadAn=      5 IRanWt=     -1 IRanGd=            0 ICorTp=0 IEmpDi=121
 HFx  wShort=  0.000000 wLong=  0.200000 cFull=  0.222036 cShort=  0.000000 cLong=  0.777964
 DFx  wShort=  0.000000 wLong=  0.200000 cFull=  0.000000 cShort=  0.000000 cLong=  1.000000
 NAtoms=   24 NActive=   24 NUniq=   24 SFac= 1.00D+00 NAtFMM=   60 NAOKFM=F Big=F
 Integral buffers will be    131072 words long.
 Raffenetti 2 integral format.
 Two-electron integral symmetry is turned off.
 R6Disp:  Grimme-D2 Dispersion energy=       -0.0142836653 Hartrees.
 Nuclear repulsion after empirical dispersion term =     1218.6986939396 Hartrees.
 Leave Link  301 at Fri Mar  6 16:25:21 2026, MaxMem=  2415919104 cpu:               0.1 elap:               0.1
 (Enter /prod/precompiled/gaussian/16c2/g16/l302.exe)
 NPDir=0 NMtPBC=     1 NCelOv=     1 NCel=       1 NClECP=     1 NCelD=      1
         NCelK=      1 NCelE2=     1 NClLst=     1 CellRange=     0.0.
 One-electron integrals computed using PRISM.
   1 Symmetry operations used in ECPInt.
 ECPInt:  NShTT=    7750 NPrTT=   30142 LenC2=    7059 LenP2D=   19273.
 LDataN:  DoStor=T MaxTD1= 4 Len=   56
 NBasis=   272 RedAO= T EigKep=  2.23D-04  NBF=   272
 NBsUse=   272 1.00D-06 EigRej= -1.00D+00 NBFU=   272
 Precomputing XC quadrature grid using
 IXCGrd= 4 IRadAn=           5 IRanWt=          -1 IRanGd=           0 AccXCQ= 0.00D+00.
 Generated NRdTot=       0 NPtTot=           0 NUsed=           0 NTot=          32
 NSgBfM=   286   286   286   286   286 MxSgAt=    24 MxSgA2=    24.
 Leave Link  302 at Fri Mar  6 16:25:21 2026, MaxMem=  2415919104 cpu:               1.2 elap:               0.3
 (Enter /prod/precompiled/gaussian/16c2/g16/l303.exe)
 DipDrv:  MaxL=1.
 Leave Link  303 at Fri Mar  6 16:25:21 2026, MaxMem=  2415919104 cpu:               0.2 elap:               0.1
 (Enter /prod/precompiled/gaussian/16c2/g16/l401.exe)
 ExpMin= 1.22D-01 ExpMax= 1.04D+04 ExpMxC= 1.57D+03 IAcc=3 IRadAn=         5 AccDes= 0.00D+00
 Harris functional with IExCor= 4639 and IRadAn=       5 diagonalized for initial guess.
 HarFok:  IExCor= 4639 AccDes= 0.00D+00 IRadAn=         5 IDoV= 1 UseB2=F ITyADJ=14
 ICtDFT=  3500011 ScaDFX=  1.000000  1.000000  1.000000  1.000000
 FoFCou: FMM=F IPFlag=           0 FMFlag=      100000 FMFlg1=           0
         NFxFlg=           0 DoJE=T BraDBF=F KetDBF=T FulRan=T
         wScrn=  0.000000 ICntrl=       500 IOpCl=  0 I1Cent=   200000004 NGrid=           0
         NMat0=    1 NMatS0=      1 NMatT0=    0 NMatD0=    1 NMtDS0=    0 NMtDT0=    0
 Symmetry not used in FoFCou.
 Harris En= -1450.72221302596    
 JPrj=0 DoOrth=F DoCkMO=F.
 Leave Link  401 at Fri Mar  6 16:25:22 2026, MaxMem=  2415919104 cpu:               5.5 elap:               0.8
 (Enter /prod/precompiled/gaussian/16c2/g16/l502.exe)
 Two-electron integral symmetry not used.
 Closed shell SCF:
 Using DIIS extrapolation, IDIIS=  1040.
 NGot=  2415919104 LenX=  2415746906 LenY=  2415663521
 Requested convergence on RMS density matrix=1.00D-08 within 200 cycles.
 Requested convergence on MAX density matrix=1.00D-06.
 Requested convergence on             energy=1.00D-06.
 No special actions if energy rises.
 Fock matrices will be formed incrementally for  20 cycles.
 Integral accuracy reduced to 1.0D-05 until final iterations.

 Cycle   1  Pass 0  IDiag  1:
 FoFJK:  IHMeth= 1 ICntrl=       0 DoSepK=T KAlg= 0 I1Cent=           0 FoldK=F
 IRaf=         1 NMat=       1 IRICut=       1 DoRegI=T DoRafI=F ISym2E= 0 IDoP0=0 IntGTp=1.
 FoFCou: FMM=F IPFlag=           0 FMFlag=      100000 FMFlg1=           0
         NFxFlg=           0 DoJE=T BraDBF=F KetDBF=F FulRan=T
         wScrn=  0.000000 ICntrl=       500 IOpCl=  0 I1Cent=           0 NGrid=           0
         NMat0=    1 NMatS0=      1 NMatT0=    0 NMatD0=    1 NMtDS0=    0 NMtDT0=    0
 Symmetry not used in FoFCou.
 E= -1490.35164091224    
 DIIS: error= 3.65D-02 at cycle   1 NSaved=   1.
 NSaved= 1 IEnMin= 1 EnMin= -1490.35164091224     IErMin= 1 ErrMin= 3.65D-02
 ErrMax= 3.65D-02  0.00D+00 EMaxC= 1.00D-01 BMatC= 8.41D-01 BMatP= 8.41D-01
 IDIUse=3 WtCom= 6.35D-01 WtEn= 3.65D-01
 Coeff-Com:  0.100D+01
 Coeff-En:   0.100D+01
 Coeff:      0.100D+01
 Gap=     0.241 Goal=   None    Shift=    0.000
 GapD=    0.241 DampG=1.000 DampE=0.500 DampFc=0.5000 IDamp=-1.
 Damping current iteration by 5.00D-01
 RMSDP=7.90D-03 MaxDP=3.14D-01              OVMax= 4.33D-01

 Cycle   2  Pass 0  IDiag  1:
 RMSU=  3.89D-03    CP:  9.74D-01
 E= -1490.52580616702     Delta-E=       -0.174165254776 Rises=F Damp=T
 DIIS: error= 1.31D-02 at cycle   2 NSaved=   2.
 NSaved= 2 IEnMin= 2 EnMin= -1490.52580616702     IErMin= 2 ErrMin= 1.31D-02
 ErrMax= 1.31D-02  0.00D+00 EMaxC= 1.00D-01 BMatC= 1.33D-01 BMatP= 8.41D-01
 IDIUse=3 WtCom= 8.69D-01 WtEn= 1.31D-01
 Coeff-Com:  0.194D-02 0.998D+00
 Coeff-En:   0.269D+00 0.731D+00
 Coeff:      0.370D-01 0.963D+00
 Gap=     0.318 Goal=   None    Shift=    0.000
 RMSDP=3.26D-03 MaxDP=8.64D-02 DE=-1.74D-01 OVMax= 4.02D-01

 Cycle   3  Pass 0  IDiag  1:
 RMSU=  3.23D-03    CP:  9.63D-01  9.01D-01
 E= -1490.78583591745     Delta-E=       -0.260029750426 Rises=F Damp=F
 DIIS: error= 1.71D-02 at cycle   3 NSaved=   3.
 NSaved= 3 IEnMin= 3 EnMin= -1490.78583591745     IErMin= 2 ErrMin= 1.31D-02
 ErrMax= 1.71D-02  0.00D+00 EMaxC= 1.00D-01 BMatC= 1.15D-01 BMatP= 1.33D-01
 IDIUse=3 WtCom= 8.29D-01 WtEn= 1.71D-01
 Coeff-Com: -0.146D+00 0.555D+00 0.591D+00
 Coeff-En:   0.000D+00 0.000D+00 0.100D+01
 Coeff:     -0.121D+00 0.460D+00 0.661D+00
 Gap=     0.222 Goal=   None    Shift=    0.000
 RMSDP=2.42D-03 MaxDP=1.00D-01 DE=-2.60D-01 OVMax= 2.37D-01

 Cycle   4  Pass 0  IDiag  1:
 RMSU=  1.62D-03    CP:  9.53D-01  1.15D+00  5.43D-01
 E= -1490.90674446994     Delta-E=       -0.120908552499 Rises=F Damp=F
 DIIS: error= 4.76D-03 at cycle   4 NSaved=   4.
 NSaved= 4 IEnMin= 4 EnMin= -1490.90674446994     IErMin= 4 ErrMin= 4.76D-03
 ErrMax= 4.76D-03  0.00D+00 EMaxC= 1.00D-01 BMatC= 1.39D-02 BMatP= 1.15D-01
 IDIUse=3 WtCom= 9.52D-01 WtEn= 4.76D-02
 Coeff-Com: -0.324D-01 0.632D-01 0.284D+00 0.685D+00
 Coeff-En:   0.000D+00 0.000D+00 0.121D-01 0.988D+00
 Coeff:     -0.308D-01 0.602D-01 0.271D+00 0.699D+00
 Gap=     0.223 Goal=   None    Shift=    0.000
 RMSDP=6.69D-04 MaxDP=2.41D-02 DE=-1.21D-01 OVMax= 5.16D-02

 Cycle   5  Pass 0  IDiag  1:
 RMSU=  3.93D-04    CP:  9.52D-01  1.14D+00  6.98D-01  8.85D-01
 E= -1490.92262494995     Delta-E=       -0.015880480002 Rises=F Damp=F
 DIIS: error= 1.10D-03 at cycle   5 NSaved=   5.
 NSaved= 5 IEnMin= 5 EnMin= -1490.92262494995     IErMin= 5 ErrMin= 1.10D-03
 ErrMax= 1.10D-03  0.00D+00 EMaxC= 1.00D-01 BMatC= 6.40D-04 BMatP= 1.39D-02
 IDIUse=3 WtCom= 9.89D-01 WtEn= 1.10D-02
 Coeff-Com:  0.513D-02-0.284D-01 0.256D-01 0.192D+00 0.805D+00
 Coeff-En:   0.000D+00 0.000D+00 0.000D+00 0.000D+00 0.100D+01
 Coeff:      0.507D-02-0.281D-01 0.254D-01 0.190D+00 0.807D+00
 Gap=     0.227 Goal=   None    Shift=    0.000
 RMSDP=2.52D-04 MaxDP=1.06D-02 DE=-1.59D-02 OVMax= 3.09D-02

 Cycle   6  Pass 0  IDiag  1:
 RMSU=  1.92D-04    CP:  9.51D-01  1.15D+00  6.99D-01  9.70D-01  1.20D+00
 E= -1490.92432090014     Delta-E=       -0.001695950198 Rises=F Damp=F
 DIIS: error= 9.94D-04 at cycle   6 NSaved=   6.
 NSaved= 6 IEnMin= 6 EnMin= -1490.92432090014     IErMin= 6 ErrMin= 9.94D-04
 ErrMax= 9.94D-04  0.00D+00 EMaxC= 1.00D-01 BMatC= 3.68D-04 BMatP= 6.40D-04
 IDIUse=3 WtCom= 9.90D-01 WtEn= 9.94D-03
 Coeff-Com:  0.129D-01-0.318D-01-0.536D-01-0.816D-01 0.437D+00 0.717D+00
 Coeff-En:   0.000D+00 0.000D+00 0.000D+00 0.000D+00 0.000D+00 0.100D+01
 Coeff:      0.128D-01-0.315D-01-0.531D-01-0.808D-01 0.433D+00 0.720D+00
 Gap=     0.230 Goal=   None    Shift=    0.000
 RMSDP=1.68D-04 MaxDP=5.27D-03 DE=-1.70D-03 OVMax= 2.07D-02

 Cycle   7  Pass 0  IDiag  1:
 RMSU=  9.64D-05    CP:  9.51D-01  1.14D+00  7.01D-01  1.02D+00  1.47D+00
                    CP:  1.21D+00
 E= -1490.92513872478     Delta-E=       -0.000817824636 Rises=F Damp=F
 DIIS: error= 3.84D-04 at cycle   7 NSaved=   7.
 NSaved= 7 IEnMin= 7 EnMin= -1490.92513872478     IErMin= 7 ErrMin= 3.84D-04
 ErrMax= 3.84D-04  0.00D+00 EMaxC= 1.00D-01 BMatC= 5.21D-05 BMatP= 3.68D-04
 IDIUse=3 WtCom= 9.96D-01 WtEn= 3.84D-03
 Coeff-Com:  0.437D-02-0.635D-02-0.248D-01-0.781D-01 0.330D-01 0.291D+00
 Coeff-Com:  0.781D+00
 Coeff-En:   0.000D+00 0.000D+00 0.000D+00 0.000D+00 0.000D+00 0.000D+00
 Coeff-En:   0.100D+01
 Coeff:      0.436D-02-0.633D-02-0.247D-01-0.778D-01 0.329D-01 0.290D+00
 Coeff:      0.782D+00
 Gap=     0.230 Goal=   None    Shift=    0.000
 RMSDP=1.02D-04 MaxDP=2.76D-03 DE=-8.18D-04 OVMax= 1.44D-02

 Cycle   8  Pass 0  IDiag  1:
 RMSU=  4.85D-05    CP:  9.51D-01  1.15D+00  7.02D-01  1.03D+00  1.62D+00
                    CP:  1.52D+00  1.24D+00
 E= -1490.92541415981     Delta-E=       -0.000275435027 Rises=F Damp=F
 DIIS: error= 2.96D-04 at cycle   8 NSaved=   8.
 NSaved= 8 IEnMin= 8 EnMin= -1490.92541415981     IErMin= 8 ErrMin= 2.96D-04
 ErrMax= 2.96D-04  0.00D+00 EMaxC= 1.00D-01 BMatC= 1.61D-05 BMatP= 5.21D-05
 IDIUse=3 WtCom= 9.97D-01 WtEn= 2.96D-03
 Coeff-Com: -0.262D-02 0.716D-02 0.954D-02-0.538D-03-0.113D+00-0.150D+00
 Coeff-Com:  0.217D+00 0.103D+01
 Coeff-En:   0.000D+00 0.000D+00 0.000D+00 0.000D+00 0.000D+00 0.000D+00
 Coeff-En:   0.000D+00 0.100D+01
 Coeff:     -0.261D-02 0.714D-02 0.951D-02-0.537D-03-0.112D+00-0.149D+00
 Coeff:      0.217D+00 0.103D+01
 Gap=     0.230 Goal=   None    Shift=    0.000
 RMSDP=9.68D-05 MaxDP=3.23D-03 DE=-2.75D-04 OVMax= 1.57D-02

 Cycle   9  Pass 0  IDiag  1:
 RMSU=  3.01D-05    CP:  9.50D-01  1.15D+00  7.01D-01  1.04D+00  1.73D+00
                    CP:  1.76D+00  1.78D+00  1.73D+00
 E= -1490.92558050584     Delta-E=       -0.000166346029 Rises=F Damp=F
 DIIS: error= 1.46D-04 at cycle   9 NSaved=   9.
 NSaved= 9 IEnMin= 9 EnMin= -1490.92558050584     IErMin= 9 ErrMin= 1.46D-04
 ErrMax= 1.46D-04  0.00D+00 EMaxC= 1.00D-01 BMatC= 6.50D-06 BMatP= 1.61D-05
 IDIUse=3 WtCom= 9.99D-01 WtEn= 1.46D-03
 Coeff-Com: -0.226D-02 0.391D-02 0.122D-01 0.276D-01-0.431D-01-0.163D+00
 Coeff-Com: -0.214D+00 0.375D+00 0.100D+01
 Coeff-En:   0.000D+00 0.000D+00 0.000D+00 0.000D+00 0.000D+00 0.000D+00
 Coeff-En:   0.000D+00 0.000D+00 0.100D+01
 Coeff:     -0.226D-02 0.390D-02 0.122D-01 0.275D-01-0.430D-01-0.163D+00
 Coeff:     -0.213D+00 0.375D+00 0.100D+01
 Gap=     0.230 Goal=   None    Shift=    0.000
 RMSDP=7.56D-05 MaxDP=2.94D-03 DE=-1.66D-04 OVMax= 1.30D-02

 Cycle  10  Pass 0  IDiag  1:
 RMSU=  1.72D-05    CP:  9.50D-01  1.15D+00  6.99D-01  1.04D+00  1.80D+00
                    CP:  1.94D+00  2.16D+00  2.56D+00  1.65D+00
 E= -1490.92566434370     Delta-E=       -0.000083837860 Rises=F Damp=F
 DIIS: error= 8.60D-05 at cycle  10 NSaved=  10.
 NSaved=10 IEnMin=10 EnMin= -1490.92566434370     IErMin=10 ErrMin= 8.60D-05
 ErrMax= 8.60D-05  0.00D+00 EMaxC= 1.00D-01 BMatC= 2.25D-06 BMatP= 6.50D-06
 IDIUse=1 WtCom= 1.00D+00 WtEn= 0.00D+00
 Coeff-Com:  0.153D-02-0.361D-02-0.369D-02-0.152D-02 0.585D-01 0.750D-01
 Coeff-Com: -0.105D+00-0.487D+00-0.537D-01 0.152D+01
 Coeff:      0.153D-02-0.361D-02-0.369D-02-0.152D-02 0.585D-01 0.750D-01
 Coeff:     -0.105D+00-0.487D+00-0.537D-01 0.152D+01
 Gap=     0.230 Goal=   None    Shift=    0.000
 RMSDP=7.46D-05 MaxDP=3.14D-03 DE=-8.38D-05 OVMax= 1.31D-02

 Cycle  11  Pass 0  IDiag  1:
 RMSU=  2.41D-05    CP:  9.50D-01  1.15D+00  6.98D-01  1.05D+00  1.85D+00
                    CP:  2.08D+00  2.52D+00  3.00D+00  2.66D+00  2.04D+00
 E= -1490.92570906473     Delta-E=       -0.000044721032 Rises=F Damp=F
 DIIS: error= 3.83D-05 at cycle  11 NSaved=  11.
 NSaved=11 IEnMin=11 EnMin= -1490.92570906473     IErMin=11 ErrMin= 3.83D-05
 ErrMax= 3.83D-05  0.00D+00 EMaxC= 1.00D-01 BMatC= 6.24D-07 BMatP= 2.25D-06
 IDIUse=1 WtCom= 1.00D+00 WtEn= 0.00D+00
 Coeff-Com:  0.113D-02-0.231D-02-0.347D-02-0.737D-02 0.258D-01 0.666D-01
 Coeff-Com:  0.127D-01-0.226D+00-0.270D+00 0.391D+00 0.101D+01
 Coeff:      0.113D-02-0.231D-02-0.347D-02-0.737D-02 0.258D-01 0.666D-01
 Coeff:      0.127D-01-0.226D+00-0.270D+00 0.391D+00 0.101D+01
 Gap=     0.230 Goal=   None    Shift=    0.000
 RMSDP=3.24D-05 MaxDP=1.37D-03 DE=-4.47D-05 OVMax= 5.59D-03

 Cycle  12  Pass 0  IDiag  1:
 RMSU=  6.33D-06    CP:  9.50D-01  1.15D+00  6.99D-01  1.05D+00  1.87D+00
                    CP:  2.14D+00  2.66D+00  3.00D+00  3.00D+00  2.68D+00
                    CP:  1.79D+00
 E= -1490.92571637470     Delta-E=       -0.000007309976 Rises=F Damp=F
 DIIS: error= 1.22D-05 at cycle  12 NSaved=  12.
 NSaved=12 IEnMin=12 EnMin= -1490.92571637470     IErMin=12 ErrMin= 1.22D-05
 ErrMax= 1.22D-05  0.00D+00 EMaxC= 1.00D-01 BMatC= 1.50D-07 BMatP= 6.24D-07
 IDIUse=1 WtCom= 1.00D+00 WtEn= 0.00D+00
 Coeff-Com:  0.273D-04 0.231D-04 0.574D-04-0.207D-02-0.758D-02 0.508D-02
 Coeff-Com:  0.249D-01 0.501D-01-0.732D-01-0.265D+00 0.376D+00 0.892D+00
 Coeff:      0.273D-04 0.231D-04 0.574D-04-0.207D-02-0.758D-02 0.508D-02
 Coeff:      0.249D-01 0.501D-01-0.732D-01-0.265D+00 0.376D+00 0.892D+00
 Gap=     0.230 Goal=   None    Shift=    0.000
 RMSDP=1.21D-05 MaxDP=5.03D-04 DE=-7.31D-06 OVMax= 2.05D-03

 Cycle  13  Pass 0  IDiag  1:
 RMSU=  4.67D-06    CP:  9.50D-01  1.15D+00  6.99D-01  1.05D+00  1.87D+00
                    CP:  2.16D+00  2.71D+00  3.00D+00  3.00D+00  2.93D+00
                    CP:  2.10D+00  1.43D+00
 E= -1490.92571716712     Delta-E=       -0.000000792420 Rises=F Damp=F
 DIIS: error= 9.27D-06 at cycle  13 NSaved=  13.
 NSaved=13 IEnMin=13 EnMin= -1490.92571716712     IErMin=13 ErrMin= 9.27D-06
 ErrMax= 9.27D-06  0.00D+00 EMaxC= 1.00D-01 BMatC= 1.46D-08 BMatP= 1.50D-07
 IDIUse=1 WtCom= 1.00D+00 WtEn= 0.00D+00
 Coeff-Com: -0.123D-03 0.269D-03 0.376D-03 0.282D-03-0.480D-02-0.648D-02
 Coeff-Com:  0.449D-02 0.407D-01 0.146D-01-0.121D+00-0.421D-01 0.221D+00
 Coeff-Com:  0.892D+00
 Coeff:     -0.123D-03 0.269D-03 0.376D-03 0.282D-03-0.480D-02-0.648D-02
 Coeff:      0.449D-02 0.407D-01 0.146D-01-0.121D+00-0.421D-01 0.221D+00
 Coeff:      0.892D+00
 Gap=     0.230 Goal=   None    Shift=    0.000
 RMSDP=3.36D-06 MaxDP=1.30D-04 DE=-7.92D-07 OVMax= 5.28D-04

 Initial convergence to 1.0D-05 achieved.  Increase integral accuracy.
 Cycle  14  Pass 1  IDiag  1:
 E= -1490.92572837295     Delta-E=       -0.000011205829 Rises=F Damp=F
 DIIS: error= 6.59D-05 at cycle   1 NSaved=   1.
 NSaved= 1 IEnMin= 1 EnMin= -1490.92572837295     IErMin= 1 ErrMin= 6.59D-05
 ErrMax= 6.59D-05  0.00D+00 EMaxC= 1.00D-01 BMatC= 1.17D-06 BMatP= 1.17D-06
 IDIUse=1 WtCom= 1.00D+00 WtEn= 0.00D+00
 Coeff-Com:  0.100D+01
 Coeff:      0.100D+01
 Gap=     0.230 Goal=   None    Shift=    0.000
 RMSDP=3.36D-06 MaxDP=1.30D-04 DE=-1.12D-05 OVMax= 2.42D-04

 Cycle  15  Pass 1  IDiag  1:
 RMSU=  1.14D-04    CP:  1.00D+00
 E= -1490.92572958159     Delta-E=       -0.000001208636 Rises=F Damp=F
 DIIS: error= 4.98D-06 at cycle   2 NSaved=   2.
 NSaved= 2 IEnMin= 2 EnMin= -1490.92572958159     IErMin= 2 ErrMin= 4.98D-06
 ErrMax= 4.98D-06  0.00D+00 EMaxC= 1.00D-01 BMatC= 1.69D-08 BMatP= 1.17D-06
 IDIUse=1 WtCom= 1.00D+00 WtEn= 0.00D+00
 Coeff-Com: -0.321D-01 0.103D+01
 Coeff:     -0.321D-01 0.103D+01
 Gap=     0.230 Goal=   None    Shift=    0.000
 RMSDP=6.61D-06 MaxDP=1.31D-04 DE=-1.21D-06 OVMax= 7.06D-05

 Cycle  16  Pass 1  IDiag  1:
 RMSU=  2.17D-06    CP:  1.00D+00  1.05D+00
 E= -1490.92572959609     Delta-E=       -0.000000014505 Rises=F Damp=F
 DIIS: error= 3.93D-06 at cycle   3 NSaved=   3.
 NSaved= 3 IEnMin= 3 EnMin= -1490.92572959609     IErMin= 3 ErrMin= 3.93D-06
 ErrMax= 3.93D-06  0.00D+00 EMaxC= 1.00D-01 BMatC= 1.18D-08 BMatP= 1.69D-08
 IDIUse=1 WtCom= 1.00D+00 WtEn= 0.00D+00
 Coeff-Com: -0.275D-01 0.479D+00 0.549D+00
 Coeff:     -0.275D-01 0.479D+00 0.549D+00
 Gap=     0.230 Goal=   None    Shift=    0.000
 RMSDP=7.00D-07 MaxDP=2.13D-05 DE=-1.45D-08 OVMax= 2.55D-05

 Cycle  17  Pass 1  IDiag  1:
 RMSU=  6.29D-07    CP:  1.00D+00  1.06D+00  8.89D-01
 E= -1490.92572960825     Delta-E=       -0.000000012153 Rises=F Damp=F
 DIIS: error= 1.35D-06 at cycle   4 NSaved=   4.
 NSaved= 4 IEnMin= 4 EnMin= -1490.92572960825     IErMin= 4 ErrMin= 1.35D-06
 ErrMax= 1.35D-06  0.00D+00 EMaxC= 1.00D-01 BMatC= 5.26D-10 BMatP= 1.18D-08
 IDIUse=1 WtCom= 1.00D+00 WtEn= 0.00D+00
 Coeff-Com: -0.563D-02 0.553D-01 0.159D+00 0.792D+00
 Coeff:     -0.563D-02 0.553D-01 0.159D+00 0.792D+00
 Gap=     0.230 Goal=   None    Shift=    0.000
 RMSDP=2.32D-07 MaxDP=6.06D-06 DE=-1.22D-08 OVMax= 1.80D-05

 Cycle  18  Pass 1  IDiag  1:
 RMSU=  1.80D-07    CP:  1.00D+00  1.06D+00  9.47D-01  1.09D+00
 E= -1490.92572960933     Delta-E=       -0.000000001080 Rises=F Damp=F
 DIIS: error= 4.49D-07 at cycle   5 NSaved=   5.
 NSaved= 5 IEnMin= 5 EnMin= -1490.92572960933     IErMin= 5 ErrMin= 4.49D-07
 ErrMax= 4.49D-07  0.00D+00 EMaxC= 1.00D-01 BMatC= 1.31D-10 BMatP= 5.26D-10
 IDIUse=1 WtCom= 1.00D+00 WtEn= 0.00D+00
 Coeff-Com:  0.254D-02-0.597D-01-0.439D-01 0.287D+00 0.814D+00
 Coeff:      0.254D-02-0.597D-01-0.439D-01 0.287D+00 0.814D+00
 Gap=     0.230 Goal=   None    Shift=    0.000
 RMSDP=1.25D-07 MaxDP=3.25D-06 DE=-1.08D-09 OVMax= 1.44D-05

 Cycle  19  Pass 1  IDiag  1:
 RMSU=  9.87D-08    CP:  1.00D+00  1.06D+00  9.63D-01  1.18D+00  1.17D+00
 E= -1490.92572960976     Delta-E=       -0.000000000429 Rises=F Damp=F
 DIIS: error= 2.36D-07 at cycle   6 NSaved=   6.
 NSaved= 6 IEnMin= 6 EnMin= -1490.92572960976     IErMin= 6 ErrMin= 2.36D-07
 ErrMax= 2.36D-07  0.00D+00 EMaxC= 1.00D-01 BMatC= 3.11D-11 BMatP= 1.31D-10
 IDIUse=1 WtCom= 1.00D+00 WtEn= 0.00D+00
 Coeff-Com:  0.181D-02-0.329D-01-0.403D-01 0.250D-01 0.333D+00 0.714D+00
 Coeff:      0.181D-02-0.329D-01-0.403D-01 0.250D-01 0.333D+00 0.714D+00
 Gap=     0.230 Goal=   None    Shift=    0.000
 RMSDP=6.74D-08 MaxDP=2.28D-06 DE=-4.29D-10 OVMax= 9.45D-06

 Cycle  20  Pass 1  IDiag  1:
 RMSU=  3.75D-08    CP:  1.00D+00  1.06D+00  9.68D-01  1.21D+00  1.38D+00
                    CP:  1.33D+00
 E= -1490.92572960988     Delta-E=       -0.000000000124 Rises=F Damp=F
 DIIS: error= 1.99D-07 at cycle   7 NSaved=   7.
 NSaved= 7 IEnMin= 7 EnMin= -1490.92572960988     IErMin= 7 ErrMin= 1.99D-07
 ErrMax= 1.99D-07  0.00D+00 EMaxC= 1.00D-01 BMatC= 1.32D-11 BMatP= 3.11D-11
 IDIUse=1 WtCom= 1.00D+00 WtEn= 0.00D+00
 Coeff-Com: -0.148D-03 0.817D-02-0.721D-03-0.984D-01-0.183D+00 0.332D+00
 Coeff-Com:  0.942D+00
 Coeff:     -0.148D-03 0.817D-02-0.721D-03-0.984D-01-0.183D+00 0.332D+00
 Coeff:      0.942D+00
 Gap=     0.230 Goal=   None    Shift=    0.000
 RMSDP=7.47D-08 MaxDP=2.81D-06 DE=-1.24D-10 OVMax= 1.17D-05

 Cycle  21  Pass 1  IDiag  1:
 RMSU=  2.79D-08    CP:  1.00D+00  1.06D+00  9.68D-01  1.24D+00  1.58D+00
                    CP:  1.87D+00  1.57D+00
 E= -1490.92572961000     Delta-E=       -0.000000000124 Rises=F Damp=F
 DIIS: error= 1.13D-07 at cycle   8 NSaved=   8.
 NSaved= 8 IEnMin= 8 EnMin= -1490.92572961000     IErMin= 8 ErrMin= 1.13D-07
 ErrMax= 1.13D-07  0.00D+00 EMaxC= 1.00D-01 BMatC= 4.03D-12 BMatP= 1.32D-11
 IDIUse=1 WtCom= 1.00D+00 WtEn= 0.00D+00
 Coeff-Com: -0.725D-03 0.154D-01 0.154D-01-0.484D-01-0.197D+00-0.110D+00
 Coeff-Com:  0.322D+00 0.100D+01
 Coeff:     -0.725D-03 0.154D-01 0.154D-01-0.484D-01-0.197D+00-0.110D+00
 Coeff:      0.322D+00 0.100D+01
 Gap=     0.230 Goal=   None    Shift=    0.000
 RMSDP=6.03D-08 MaxDP=2.45D-06 DE=-1.24D-10 OVMax= 1.02D-05

 Cycle  22  Pass 1  IDiag  1:
 RMSU=  1.46D-08    CP:  1.00D+00  1.06D+00  9.69D-01  1.25D+00  1.72D+00
                    CP:  2.27D+00  2.26D+00  1.73D+00
 E= -1490.92572961006     Delta-E=       -0.000000000056 Rises=F Damp=F
 DIIS: error= 7.20D-08 at cycle   9 NSaved=   9.
 NSaved= 9 IEnMin= 9 EnMin= -1490.92572961006     IErMin= 9 ErrMin= 7.20D-08
 ErrMax= 7.20D-08  0.00D+00 EMaxC= 1.00D-01 BMatC= 1.43D-12 BMatP= 4.03D-12
 IDIUse=1 WtCom= 1.00D+00 WtEn= 0.00D+00
 Coeff-Com: -0.329D-04-0.121D-02 0.260D-02 0.275D-01 0.476D-01-0.106D+00
 Coeff-Com: -0.346D+00 0.120D+00 0.125D+01
 Coeff:     -0.329D-04-0.121D-02 0.260D-02 0.275D-01 0.476D-01-0.106D+00
 Coeff:     -0.346D+00 0.120D+00 0.125D+01
 Gap=     0.230 Goal=   None    Shift=    0.000
 RMSDP=4.73D-08 MaxDP=1.96D-06 DE=-5.64D-11 OVMax= 8.23D-06

 Cycle  23  Pass 1  IDiag  1:
 RMSU=  8.80D-09    CP:  1.00D+00  1.06D+00  9.71D-01  1.26D+00  1.82D+00
                    CP:  2.55D+00  2.82D+00  2.54D+00  1.85D+00
 E= -1490.92572961007     Delta-E=       -0.000000000008 Rises=F Damp=F
 DIIS: error= 3.87D-08 at cycle  10 NSaved=  10.
 NSaved=10 IEnMin=10 EnMin= -1490.92572961007     IErMin=10 ErrMin= 3.87D-08
 ErrMax= 3.87D-08  0.00D+00 EMaxC= 1.00D-01 BMatC= 5.19D-13 BMatP= 1.43D-12
 IDIUse=1 WtCom= 1.00D+00 WtEn= 0.00D+00
 Coeff-Com:  0.286D-03-0.669D-02-0.519D-02 0.273D-01 0.971D-01 0.203D-01
 Coeff-Com: -0.265D+00-0.348D+00 0.420D+00 0.106D+01
 Coeff:      0.286D-03-0.669D-02-0.519D-02 0.273D-01 0.971D-01 0.203D-01
 Coeff:     -0.265D+00-0.348D+00 0.420D+00 0.106D+01
 Gap=     0.230 Goal=   None    Shift=    0.000
 RMSDP=3.00D-08 MaxDP=1.23D-06 DE=-7.73D-12 OVMax= 5.21D-06

 Cycle  24  Pass 1  IDiag  1:
 RMSU=  7.45D-09    CP:  1.00D+00  1.06D+00  9.72D-01  1.27D+00  1.87D+00
                    CP:  2.71D+00  3.00D+00  3.00D+00  2.56D+00  1.76D+00
 E= -1490.92572961008     Delta-E=       -0.000000000010 Rises=F Damp=F
 DIIS: error= 1.88D-08 at cycle  11 NSaved=  11.
 NSaved=11 IEnMin=11 EnMin= -1490.92572961008     IErMin=11 ErrMin= 1.88D-08
 ErrMax= 1.88D-08  0.00D+00 EMaxC= 1.00D-01 BMatC= 1.11D-13 BMatP= 5.19D-13
 IDIUse=1 WtCom= 1.00D+00 WtEn= 0.00D+00
 Coeff-Com:  0.752D-04-0.106D-02-0.189D-02-0.411D-02 0.456D-02 0.439D-01
 Coeff-Com:  0.629D-01-0.112D+00-0.362D+00 0.210D+00 0.116D+01
 Coeff:      0.752D-04-0.106D-02-0.189D-02-0.411D-02 0.456D-02 0.439D-01
 Coeff:      0.629D-01-0.112D+00-0.362D+00 0.210D+00 0.116D+01
 Gap=     0.230 Goal=   None    Shift=    0.000
 RMSDP=1.62D-08 MaxDP=6.42D-07 DE=-1.05D-11 OVMax= 2.80D-06

 Cycle  25  Pass 1  IDiag  1:
 RMSU=  6.18D-09    CP:  1.00D+00  1.06D+00  9.72D-01  1.27D+00  1.90D+00
                    CP:  2.78D+00  3.00D+00  3.00D+00  3.00D+00  2.44D+00
                    CP:  2.06D+00
 E= -1490.92572961008     Delta-E=        0.000000000002 Rises=F Damp=F
 DIIS: error= 5.45D-09 at cycle  12 NSaved=  12.
 NSaved=12 IEnMin=11 EnMin= -1490.92572961008     IErMin=12 ErrMin= 5.45D-09
 ErrMax= 5.45D-09  0.00D+00 EMaxC= 1.00D-01 BMatC= 1.39D-14 BMatP= 1.11D-13
 IDIUse=1 WtCom= 1.00D+00 WtEn= 0.00D+00
 Coeff-Com: -0.286D-04 0.848D-03 0.390D-03-0.545D-02-0.157D-01 0.834D-02
 Coeff-Com:  0.573D-01 0.348D-01-0.159D+00-0.130D+00 0.280D+00 0.928D+00
 Coeff:     -0.286D-04 0.848D-03 0.390D-03-0.545D-02-0.157D-01 0.834D-02
 Coeff:      0.573D-01 0.348D-01-0.159D+00-0.130D+00 0.280D+00 0.928D+00
 Gap=     0.230 Goal=   None    Shift=    0.000
 RMSDP=3.97D-09 MaxDP=1.43D-07 DE= 1.82D-12 OVMax= 6.46D-07

 SCF Done:  E(RwB97XD) =  -1490.92572961     A.U. after   25 cycles
            NFock= 25  Conv=0.40D-08     -V/T= 2.0052
 KE= 1.483151293877D+03 PE=-5.947869655862D+03 EE= 1.755093938435D+03
 Leave Link  502 at Fri Mar  6 16:25:45 2026, MaxMem=  2415919104 cpu:             231.3 elap:              23.2
 (Enter /prod/precompiled/gaussian/16c2/g16/l508.exe)
 QCSCF skips out because SCF is already converged.
 Leave Link  508 at Fri Mar  6 16:25:45 2026, MaxMem=  2415919104 cpu:               0.1 elap:               0.1
 (Enter /prod/precompiled/gaussian/16c2/g16/l801.exe)
 DoSCS=F DFT=T ScalE2(SS,OS)=  1.000000  1.000000
 Range of M.O.s used for correlation:     1   272
 NBasis=   272 NAE=    64 NBE=    64 NFC=     0 NFV=     0
 NROrb=    272 NOA=    64 NOB=    64 NVA=   208 NVB=   208

 **** Warning!!: The largest alpha MO coefficient is  0.14816747D+02

 Leave Link  801 at Fri Mar  6 16:25:45 2026, MaxMem=  2415919104 cpu:               0.1 elap:               0.1
 (Enter /prod/precompiled/gaussian/16c2/g16/l1101.exe)
 Using compressed storage, NAtomX=    24.
 Will process     25 centers per pass.
   1 Symmetry operations used in ECPInt.
 ECPInt:  NShTT=    7750 NPrTT=   30142 LenC2=    7059 LenP2D=   19273.
 LDataN:  DoStor=T MaxTD1= 5 Len=  102
 R6Disp: Adding Grimme-D2 dispersion energy 1st derivatives to the gradient.
 Leave Link 1101 at Fri Mar  6 16:25:46 2026, MaxMem=  2415919104 cpu:               1.6 elap:               0.9
 (Enter /prod/precompiled/gaussian/16c2/g16/l1102.exe)
 Symmetrizing basis deriv contribution to polar:
 IMax=3 JMax=2 DiffMx= 0.00D+00
 Leave Link 1102 at Fri Mar  6 16:25:46 2026, MaxMem=  2415919104 cpu:               0.2 elap:               0.1
 (Enter /prod/precompiled/gaussian/16c2/g16/l1110.exe)
 Forming Gx(P) for the SCF density, NAtomX=    24.
 Integral derivatives from FoFJK, PRISM(SPDF).
 Do as many integral derivatives as possible in FoFJK.
 G2DrvN: MDV=    2415916544.
 G2DrvN: will do    25 centers at a time, making    1 passes.
 Calling FoFCou, ICntrl=  3107 FMM=F I1Cent=   0 AccDes= 0.00D+00.
 FoFJK:  IHMeth= 1 ICntrl=    3107 DoSepK=T KAlg= 0 I1Cent=           0 FoldK=F
 IRaf=         1 NMat=       1 IRICut=       1 DoRegI=T DoRafI=F ISym2E= 0 IDoP0=0 IntGTp=1.
 FoFCou: FMM=F IPFlag=           0 FMFlag=      100000 FMFlg1=           0
         NFxFlg=           0 DoJE=F BraDBF=F KetDBF=F FulRan=T
         wScrn=  0.000000 ICntrl=      3507 IOpCl=  0 I1Cent=           0 NGrid=           0
         NMat0=    1 NMatS0=      1 NMatT0=    0 NMatD0=    1 NMtDS0=    0 NMtDT0=    0
 Symmetry not used in FoFCou.
 End of G2Drv F.D. properties file   721 does not exist.
 End of G2Drv F.D. properties file   722 does not exist.
 End of G2Drv F.D. properties file   788 does not exist.
 Leave Link 1110 at Fri Mar  6 16:26:06 2026, MaxMem=  2415919104 cpu:             197.6 elap:              19.8
 (Enter /prod/precompiled/gaussian/16c2/g16/l1002.exe)
 Minotr:  Closed shell wavefunction.
          IDoAtm=111111111111111111111111
          Direct CPHF calculation.
          Differentiating once with respect to electric field.
                with respect to dipole field.
          Differentiating once with respect to nuclear coordinates.
          Requested convergence is 1.0D-08 RMS, and 1.0D-07 maximum.
          Secondary convergence is 1.0D-12 RMS, and 1.0D-12 maximum.
          NewPWx=T KeepS1=F KeepF1=F KeepIn=T MapXYZ=F SortEE=F KeepMc=T.
         7202 words used for storage of precomputed grid.
 Keep R1 ints in memory in canonical form, NReq=1402150892.
 FoFCou: FMM=F IPFlag=           0 FMFlag=           0 FMFlg1=           0
         NFxFlg=           0 DoJE=F BraDBF=F KetDBF=F FulRan=T
         wScrn=  0.000000 ICntrl=       600 IOpCl=  0 I1Cent=           0 NGrid=           0
         NMat0=    1 NMatS0=  37128 NMatT0=    0 NMatD0=    1 NMtDS0=    0 NMtDT0=    0
 Symmetry not used in FoFCou.
 Two-electron integral symmetry not used.
          MDV=    2415919104 using IRadAn=       1.
          Solving linear equations simultaneously, MaxMat=       0.
          There are    75 degrees of freedom in the 1st order CPHF.  IDoFFX=6 NUNeed=     3.
     72 vectors produced by pass  0 Test12= 1.77D-14 1.33D-09 XBig12= 1.63D+02 6.25D+00.
 AX will form    72 AO Fock derivatives at one time.
     72 vectors produced by pass  1 Test12= 1.77D-14 1.33D-09 XBig12= 1.43D+01 5.84D-01.
     72 vectors produced by pass  2 Test12= 1.77D-14 1.33D-09 XBig12= 6.53D-01 1.09D-01.
     72 vectors produced by pass  3 Test12= 1.77D-14 1.33D-09 XBig12= 1.17D-02 1.22D-02.
     72 vectors produced by pass  4 Test12= 1.77D-14 1.33D-09 XBig12= 1.12D-04 1.01D-03.
     72 vectors produced by pass  5 Test12= 1.77D-14 1.33D-09 XBig12= 6.34D-07 6.80D-05.
     69 vectors produced by pass  6 Test12= 1.77D-14 1.33D-09 XBig12= 3.68D-09 5.42D-06.
     39 vectors produced by pass  7 Test12= 1.77D-14 1.33D-09 XBig12= 1.91D-11 4.38D-07.
      3 vectors produced by pass  8 Test12= 1.77D-14 1.33D-09 XBig12= 9.32D-14 2.63D-08.
      1 vectors produced by pass  9 Test12= 1.77D-14 1.33D-09 XBig12= 4.72D-16 1.97D-09.
 InvSVY:  IOpt=1 It=  1 EMax= 3.24D-15
 Solved reduced A of dimension   544 with    75 vectors.
 FullF1:  Do perturbations      1 to       3.
 Isotropic polarizability for W=    0.000000      177.79 Bohr**3.
 End of Minotr F.D. properties file   721 does not exist.
 End of Minotr F.D. properties file   722 does not exist.
 End of Minotr F.D. properties file   788 does not exist.
 Leave Link 1002 at Fri Mar  6 16:26:36 2026, MaxMem=  2415919104 cpu:             307.2 elap:              29.9
 (Enter /prod/precompiled/gaussian/16c2/g16/l601.exe)
 Copying SCF densities to generalized density rwf, IOpCl= 0 IROHF=0.

 **********************************************************************

            Population analysis using the SCF Density.

 **********************************************************************

 Alpha  occ. eigenvalues -- -101.68910-101.67776 -14.52142 -14.48573 -10.38007
 Alpha  occ. eigenvalues --  -10.37737 -10.36915 -10.34833 -10.32591 -10.32511
 Alpha  occ. eigenvalues --  -10.32419 -10.32078 -10.31738 -10.31668 -10.31223
 Alpha  occ. eigenvalues --  -10.31181  -9.59795  -9.58566  -7.35150  -7.34235
 Alpha  occ. eigenvalues --   -7.34122  -7.33965  -7.32979  -7.32928  -1.12804
 Alpha  occ. eigenvalues --   -1.00280  -1.00085  -0.95534  -0.93679  -0.90612
 Alpha  occ. eigenvalues --   -0.86349  -0.83886  -0.83155  -0.78417  -0.72695
 Alpha  occ. eigenvalues --   -0.71570  -0.71422  -0.66802  -0.64247  -0.60755
 Alpha  occ. eigenvalues --   -0.59285  -0.58395  -0.56956  -0.55482  -0.54104
 Alpha  occ. eigenvalues --   -0.53569  -0.52806  -0.51784  -0.50366  -0.48348
 Alpha  occ. eigenvalues --   -0.47278  -0.47193  -0.46841  -0.45454  -0.44412
 Alpha  occ. eigenvalues --   -0.42837  -0.42181  -0.39696  -0.39034  -0.36163
 Alpha  occ. eigenvalues --   -0.33517  -0.32465  -0.32044  -0.26043
 Alpha virt. eigenvalues --   -0.03054   0.03705   0.04809   0.05286   0.10510
 Alpha virt. eigenvalues --    0.10736   0.11486   0.15593   0.16589   0.17771
 Alpha virt. eigenvalues --    0.18409   0.21016   0.21446   0.21574   0.22545
 Alpha virt. eigenvalues --    0.22751   0.23589   0.25109   0.28545   0.33341
 Alpha virt. eigenvalues --    0.33976   0.34573   0.35240   0.35378   0.36134
 Alpha virt. eigenvalues --    0.36728   0.37868   0.39131   0.42263   0.44753
 Alpha virt. eigenvalues --    0.46464   0.46623   0.47581   0.49716   0.50546
 Alpha virt. eigenvalues --    0.50599   0.51463   0.53488   0.53774   0.54158
 Alpha virt. eigenvalues --    0.54503   0.55524   0.56185   0.57328   0.59521
 Alpha virt. eigenvalues --    0.59920   0.60626   0.61402   0.61990   0.62793
 Alpha virt. eigenvalues --    0.62939   0.66117   0.66810   0.66914   0.68279
 Alpha virt. eigenvalues --    0.68659   0.69115   0.70888   0.72588   0.72745
 Alpha virt. eigenvalues --    0.73694   0.74322   0.74454   0.75261   0.76004
 Alpha virt. eigenvalues --    0.77054   0.78075   0.78628   0.79012   0.79071
 Alpha virt. eigenvalues --    0.79702   0.80708   0.81281   0.82479   0.83760
 Alpha virt. eigenvalues --    0.84600   0.86868   0.87253   0.87418   0.88396
 Alpha virt. eigenvalues --    0.88881   0.89581   0.90435   0.92475   0.94081
 Alpha virt. eigenvalues --    0.94371   0.94997   0.95983   0.96496   0.99391
 Alpha virt. eigenvalues --    1.01775   1.04161   1.04802   1.06112   1.09869
 Alpha virt. eigenvalues --    1.11113   1.11553   1.14549   1.16410   1.20738
 Alpha virt. eigenvalues --    1.22618   1.23912   1.25486   1.27292   1.28990
 Alpha virt. eigenvalues --    1.30889   1.31272   1.32372   1.32974   1.33206
 Alpha virt. eigenvalues --    1.35306   1.35706   1.36131   1.37902   1.40135
 Alpha virt. eigenvalues --    1.43171   1.45677   1.48861   1.51033   1.54676
 Alpha virt. eigenvalues --    1.57069   1.58465   1.58721   1.62511   1.64186
 Alpha virt. eigenvalues --    1.65778   1.73375   1.74277   1.77215   1.78167
 Alpha virt. eigenvalues --    1.79010   1.79847   1.80848   1.82710   1.83425
 Alpha virt. eigenvalues --    1.83794   1.84049   1.84968   1.85674   1.87833
 Alpha virt. eigenvalues --    1.89280   1.89786   1.91707   1.94140   1.94508
 Alpha virt. eigenvalues --    1.97076   1.98990   2.00116   2.02011   2.02758
 Alpha virt. eigenvalues --    2.03497   2.03939   2.07898   2.08156   2.11117
 Alpha virt. eigenvalues --    2.12363   2.13202   2.15815   2.17271   2.20687
 Alpha virt. eigenvalues --    2.21647   2.22740   2.23025   2.25275   2.29351
 Alpha virt. eigenvalues --    2.30898   2.32360   2.33257   2.34134   2.34742
 Alpha virt. eigenvalues --    2.35200   2.37199   2.38042   2.38600   2.40978
 Alpha virt. eigenvalues --    2.41068   2.47241   2.48216   2.53598   2.57914
 Alpha virt. eigenvalues --    2.64854   2.65597   2.67417   2.68456   2.68889
 Alpha virt. eigenvalues --    2.70220   2.70707   2.72501   2.78487   2.80748
 Alpha virt. eigenvalues --    2.82251   2.86287   2.88954   2.90640   2.91585
 Alpha virt. eigenvalues --    2.93846   2.95778   3.04266   3.08458   3.11419
 Alpha virt. eigenvalues --    3.14166   3.16517   3.21624   3.26696   3.46048
 Alpha virt. eigenvalues --    3.57757   3.65041   3.83482
          Condensed to atoms (all electrons):
               1          2          3          4          5          6
     1  C    5.248764   0.161227  -0.061454   0.081340  -0.134312   0.092883
     2  C    0.161227   5.359117   0.236561   0.346262   0.082123  -0.145680
     3  Cl  -0.061454   0.236561  17.100057  -0.059285   0.002891   0.000627
     4  C    0.081340   0.346262  -0.059285   4.955785   0.321033   0.069350
     5  C   -0.134312   0.082123   0.002891   0.321033   5.045143   0.274603
     6  C    0.092883  -0.145680   0.000627   0.069350   0.274603   5.087806
     7  C    0.337139   0.044374   0.001970  -0.101629   0.074034   0.298045
     8  N    0.367725  -0.062473  -0.007978   0.002801  -0.000334   0.006690
     9  N   -0.108383  -0.012724   0.009217   0.000243   0.000028  -0.000418
    10  C   -0.001472  -0.001501  -0.024575  -0.000045   0.000003   0.000002
    11  C   -0.000998  -0.000086  -0.005145  -0.000002   0.000000   0.000000
    12  Cl   0.000063  -0.000005   0.000001   0.000000  -0.000000  -0.000000
    13  C    0.000018  -0.000008   0.000364   0.000000  -0.000000  -0.000000
    14  C    0.000003   0.000010  -0.001074  -0.000000   0.000000   0.000000
    15  C   -0.000181  -0.000323   0.011315   0.000007  -0.000000  -0.000000
    16  C    0.005422   0.006280  -0.131554  -0.000138   0.000006   0.000002
    17  H    0.015121  -0.068878   0.002656   0.442000  -0.056625   0.013667
    18  H   -0.001680   0.013781  -0.000141  -0.060132   0.445567  -0.064531
    19  H    0.012838  -0.001662   0.000008   0.012945  -0.066505   0.448504
    20  H   -0.066399   0.021482  -0.000031  -0.002873   0.013288  -0.069853
    21  H   -0.000000   0.000000   0.000002   0.000000  -0.000000  -0.000000
    22  H   -0.000000   0.000000   0.000005   0.000000  -0.000000  -0.000000
    23  H    0.000003   0.000004   0.000492  -0.000000  -0.000000  -0.000000
    24  H   -0.000439  -0.003857  -0.006780  -0.000533   0.000025   0.000010
               7          8          9         10         11         12
     1  C    0.337139   0.367725  -0.108383  -0.001472  -0.000998   0.000063
     2  C    0.044374  -0.062473  -0.012724  -0.001501  -0.000086  -0.000005
     3  Cl   0.001970  -0.007978   0.009217  -0.024575  -0.005145   0.000001
     4  C   -0.101629   0.002801   0.000243  -0.000045  -0.000002   0.000000
     5  C    0.074034  -0.000334   0.000028   0.000003   0.000000  -0.000000
     6  C    0.298045   0.006690  -0.000418   0.000002   0.000000  -0.000000
     7  C    5.044433  -0.080355   0.011869  -0.000272   0.000017   0.000000
     8  N   -0.080355   6.521199   0.314930  -0.038855   0.002545  -0.000504
     9  N    0.011869   0.314930   6.704405   0.396432  -0.070566   0.002458
    10  C   -0.000272  -0.038855   0.396432   4.995950   0.258953  -0.051273
    11  C    0.000017   0.002545  -0.070566   0.258953   5.262808   0.249804
    12  Cl   0.000000  -0.000504   0.002458  -0.051273   0.249804  16.912126
    13  C   -0.000000  -0.000011   0.003499   0.068773   0.357377  -0.054141
    14  C   -0.000000   0.000003   0.000217  -0.120035   0.068948   0.002928
    15  C    0.000002  -0.000111   0.008563   0.077291  -0.124458   0.000598
    16  C   -0.000121   0.002715  -0.084393   0.323585   0.006383   0.001970
    17  H   -0.002141  -0.000063   0.000070   0.000034   0.000001  -0.000000
    18  H    0.012181   0.000005   0.000000   0.000000  -0.000000  -0.000000
    19  H   -0.060912  -0.000080   0.000005  -0.000000   0.000000   0.000000
    20  H    0.439839   0.003653   0.000301   0.000015   0.000006  -0.000000
    21  H    0.000000   0.000001  -0.000068   0.016402  -0.066035   0.000954
    22  H    0.000000  -0.000000   0.000004  -0.002338   0.014582  -0.000117
    23  H    0.000000   0.000001  -0.000166   0.012701  -0.001754   0.000008
    24  H    0.000005   0.000476   0.001601  -0.056230   0.014416  -0.000087
              13         14         15         16         17         18
     1  C    0.000018   0.000003  -0.000181   0.005422   0.015121  -0.001680
     2  C   -0.000008   0.000010  -0.000323   0.006280  -0.068878   0.013781
     3  Cl   0.000364  -0.001074   0.011315  -0.131554   0.002656  -0.000141
     4  C    0.000000  -0.000000   0.000007  -0.000138   0.442000  -0.060132
     5  C   -0.000000   0.000000  -0.000000   0.000006  -0.056625   0.445567
     6  C   -0.000000   0.000000  -0.000000   0.000002   0.013667  -0.064531
     7  C   -0.000000  -0.000000   0.000002  -0.000121  -0.002141   0.012181
     8  N   -0.000011   0.000003  -0.000111   0.002715  -0.000063   0.000005
     9  N    0.003499   0.000217   0.008563  -0.084393   0.000070   0.000000
    10  C    0.068773  -0.120035   0.077291   0.323585   0.000034   0.000000
    11  C    0.357377   0.068948  -0.124458   0.006383   0.000001  -0.000000
    12  Cl  -0.054141   0.002928   0.000598   0.001970  -0.000000  -0.000000
    13  C    4.975048   0.320466   0.065058  -0.104254  -0.000000   0.000000
    14  C    0.320466   5.031207   0.302726   0.060052   0.000000  -0.000000
    15  C    0.065058   0.302726   5.077470   0.252252   0.000003   0.000000
    16  C   -0.104254   0.060052   0.252252   5.361982  -0.000044  -0.000000
    17  H   -0.000000   0.000000   0.000003  -0.000044   0.643559  -0.011766
    18  H    0.000000  -0.000000   0.000000  -0.000000  -0.011766   0.645297
    19  H   -0.000000   0.000000   0.000000  -0.000000  -0.000222  -0.010809
    20  H   -0.000000  -0.000000   0.000000  -0.000013   0.000029  -0.000201
    21  H    0.443958  -0.058780   0.013461  -0.002426  -0.000000   0.000000
    22  H   -0.064251   0.448164  -0.066812   0.014058  -0.000000   0.000000
    23  H    0.012553  -0.065389   0.443991  -0.057717  -0.000000   0.000000
    24  H   -0.001539   0.011473  -0.040149   0.423878   0.000152  -0.000001
              19         20         21         22         23         24
     1  C    0.012838  -0.066399  -0.000000  -0.000000   0.000003  -0.000439
     2  C   -0.001662   0.021482   0.000000   0.000000   0.000004  -0.003857
     3  Cl   0.000008  -0.000031   0.000002   0.000005   0.000492  -0.006780
     4  C    0.012945  -0.002873   0.000000   0.000000  -0.000000  -0.000533
     5  C   -0.066505   0.013288  -0.000000  -0.000000  -0.000000   0.000025
     6  C    0.448504  -0.069853  -0.000000  -0.000000  -0.000000   0.000010
     7  C   -0.060912   0.439839   0.000000   0.000000   0.000000   0.000005
     8  N   -0.000080   0.003653   0.000001  -0.000000   0.000001   0.000476
     9  N    0.000005   0.000301  -0.000068   0.000004  -0.000166   0.001601
    10  C   -0.000000   0.000015   0.016402  -0.002338   0.012701  -0.056230
    11  C    0.000000   0.000006  -0.066035   0.014582  -0.001754   0.014416
    12  Cl   0.000000  -0.000000   0.000954  -0.000117   0.000008  -0.000087
    13  C   -0.000000  -0.000000   0.443958  -0.064251   0.012553  -0.001539
    14  C    0.000000  -0.000000  -0.058780   0.448164  -0.065389   0.011473
    15  C    0.000000   0.000000   0.013461  -0.066812   0.443991  -0.040149
    16  C   -0.000000  -0.000013  -0.002426   0.014058  -0.057717   0.423878
    17  H   -0.000222   0.000029  -0.000000  -0.000000  -0.000000   0.000152
    18  H   -0.010809  -0.000201   0.000000   0.000000   0.000000  -0.000001
    19  H    0.645685  -0.010771   0.000000  -0.000000  -0.000000   0.000000
    20  H   -0.010771   0.644160   0.000000   0.000000  -0.000000   0.000006
    21  H    0.000000   0.000000   0.641833  -0.011737  -0.000242   0.000009
    22  H   -0.000000   0.000000  -0.011737   0.651061  -0.011032  -0.000182
    23  H   -0.000000  -0.000000  -0.000242  -0.011032   0.652974  -0.011107
    24  H    0.000000   0.000006   0.000009  -0.000182  -0.011107   0.613640
 Mulliken charges:
               1
     1  C    0.052770
     2  C    0.025975
     3  Cl  -0.068150
     4  C   -0.007130
     5  C   -0.000969
     6  C   -0.011707
     7  C   -0.018480
     8  N   -0.031979
     9  N   -0.177122
    10  C    0.146454
    11  C    0.033204
    12  Cl  -0.064782
    13  C   -0.022909
    14  C   -0.000918
    15  C   -0.020701
    16  C   -0.077924
    17  H    0.022446
    18  H    0.032428
    19  H    0.030976
    20  H    0.027363
    21  H    0.022670
    22  H    0.028596
    23  H    0.024680
    24  H    0.055212
 Sum of Mulliken charges =  -0.00000
 Mulliken charges with hydrogens summed into heavy atoms:
               1
     1  C    0.052770
     2  C    0.025975
     3  Cl  -0.068150
     4  C    0.015316
     5  C    0.031458
     6  C    0.019269
     7  C    0.008882
     8  N   -0.031979
     9  N   -0.177122
    10  C    0.146454
    11  C    0.033204
    12  Cl  -0.064782
    13  C   -0.000240
    14  C    0.027678
    15  C    0.003979
    16  C   -0.022712
 APT charges:
               1
     1  C   -0.069990
     2  C    0.235803
     3  Cl  -0.222491
     4  C   -0.163920
     5  C    0.017071
     6  C   -0.062757
     7  C   -0.007233
     8  N    0.086165
     9  N   -0.378244
    10  C    0.308567
    11  C    0.387309
    12  Cl  -0.278388
    13  C   -0.143456
    14  C   -0.018584
    15  C   -0.079488
    16  C   -0.082697
    17  H    0.058394
    18  H    0.042570
    19  H    0.037926
    20  H    0.074014
    21  H    0.062055
    22  H    0.036890
    23  H    0.040339
    24  H    0.120145
 Sum of APT charges =  -0.00000
 APT charges with hydrogens summed into heavy atoms:
               1
     1  C   -0.069990
     2  C    0.235803
     3  Cl  -0.222491
     4  C   -0.105526
     5  C    0.059642
     6  C   -0.024831
     7  C    0.066781
     8  N    0.086165
     9  N   -0.378244
    10  C    0.308567
    11  C    0.387309
    12  Cl  -0.278388
    13  C   -0.081401
    14  C    0.018306
    15  C   -0.039149
    16  C    0.037448
 Electronic spatial extent (au):  <R**2>=           5200.8384
 Charge=             -0.0000 electrons
 Dipole moment (field-independent basis, Debye):
    X=             -0.0576    Y=              2.9220    Z=             -0.9678  Tot=              3.0786
 Quadrupole moment (field-independent basis, Debye-Ang):
   XX=            -84.9443   YY=            -96.7682   ZZ=           -107.3855
   XY=             -6.0780   XZ=             -0.6714   YZ=             -2.5969
 Traceless Quadrupole moment (field-independent basis, Debye-Ang):
   XX=             11.4217   YY=             -0.4022   ZZ=            -11.0195
   XY=             -6.0780   XZ=             -0.6714   YZ=             -2.5969
 Octapole moment (field-independent basis, Debye-Ang**2):
  XXX=            -80.6588  YYY=           -235.7467  ZZZ=            -19.4026  XYY=            -54.5764
  XXY=            -67.4841  XXZ=            -16.9287  XZZ=            -25.1112  YZZ=            -99.2877
  YYZ=            -12.0418  XYZ=             -5.0441
 Hexadecapole moment (field-independent basis, Debye-Ang**3):
 XXXX=          -3360.3812 YYYY=          -2573.8853 ZZZZ=           -363.3469 XXXY=            617.2798
 XXXZ=            -73.2697 YYYX=            622.1892 YYYZ=            187.1859 ZZZX=            -84.0006
 ZZZY=            213.3384 XXYY=           -997.1609 XXZZ=           -749.9164 YYZZ=           -548.7575
 XXYZ=             27.5975 YYXZ=            -24.7662 ZZXY=            283.8537
 N-N= 1.218698693940D+03 E-N=-5.947869655049D+03  KE= 1.483151293877D+03
  Exact polarizability:     272.667     -46.646     175.902      -1.533     -25.697      84.811
 Approx polarizability:     280.541     -16.298     202.861      -3.752     -28.611     110.357
 No NMR shielding tensors so no spin-rotation constants.
 Leave Link  601 at Fri Mar  6 16:26:36 2026, MaxMem=  2415919104 cpu:               0.9 elap:               0.2
 (Enter /prod/precompiled/gaussian/16c2/g16/l701.exe)
 ... and contract with generalized density number  0.
 Compute integral second derivatives.
 R6Disp: Adding Grimme-D2 dispersion energy 2nd derivatives to the Hessian.
   1 Symmetry operations used in ECPInt.
 ECPInt:  NShTT=    7750 NPrTT=   30142 LenC2=    7059 LenP2D=   19273.
 LDataN:  DoStor=T MaxTD1= 6 Len=  172
 Leave Link  701 at Fri Mar  6 16:26:36 2026, MaxMem=  2415919104 cpu:               1.2 elap:               0.2
 (Enter /prod/precompiled/gaussian/16c2/g16/l702.exe)
 L702 exits ... SP integral derivatives will be done elsewhere.
 Leave Link  702 at Fri Mar  6 16:26:36 2026, MaxMem=  2415919104 cpu:               0.1 elap:               0.1
 (Enter /prod/precompiled/gaussian/16c2/g16/l703.exe)
 Integral derivatives from FoFJK, PRISM(SPDF).
 Compute integral second derivatives, UseDBF=F ICtDFT=           0.
 Calling FoFJK, ICntrl=    100127 FMM=F ISym2X=0 I1Cent= 0 IOpClX= 0 NMat=1 NMatS=1 NMatT=0.
 FoFJK:  IHMeth= 1 ICntrl=  100127 DoSepK=T KAlg= 0 I1Cent=           0 FoldK=F
 IRaf=         1 NMat=       1 IRICut=       1 DoRegI=T DoRafI=F ISym2E= 0 IDoP0=0 IntGTp=1.
 FoFCou: FMM=F IPFlag=           0 FMFlag=      100000 FMFlg1=         800
         NFxFlg=           0 DoJE=F BraDBF=F KetDBF=F FulRan=T
         wScrn=  0.000000 ICntrl=    100527 IOpCl=  0 I1Cent=           0 NGrid=           0
         NMat0=    1 NMatS0=      1 NMatT0=    0 NMatD0=    1 NMtDS0=    0 NMtDT0=    0
 Symmetry not used in FoFCou.
 Leave Link  703 at Fri Mar  6 16:27:13 2026, MaxMem=  2415919104 cpu:             406.7 elap:              37.0
 (Enter /prod/precompiled/gaussian/16c2/g16/l716.exe)
 Dipole        =-2.26444084D-02 1.14960436D+00-3.80759871D-01
 Polarizability= 2.72667488D+02-4.66456583D+01 1.75901652D+02
                -1.53283108D+00-2.56973054D+01 8.48110159D+01
 -------------------------------------------------------------------
 Center     Atomic                   Forces (Hartrees/Bohr)
 Number     Number              X              Y              Z
 -------------------------------------------------------------------
      1        6          -0.016947433    0.017100308    0.002994139
      2        6          -0.010921123    0.013120009    0.001972712
      3       17          -0.036093191    0.040913266    0.036677951
      4        6          -0.002832816   -0.006976426   -0.001694358
      5        6           0.005394014   -0.002179699   -0.000190969
      6        6           0.005873509   -0.012783193   -0.000040216
      7        6          -0.001494109    0.011006339    0.001032526
      8        7           0.029984905    0.004366164   -0.006617939
      9        7           0.038775121   -0.015428507    0.008529990
     10        6          -0.056055800   -0.001023880   -0.016035152
     11        6           0.016452714   -0.011000475    0.005320306
     12       17          -0.006515555    0.002928535    0.000624258
     13        6          -0.006553395    0.006436758   -0.000413693
     14        6          -0.002908487   -0.000010105    0.003093738
     15        6          -0.009725170   -0.004814824    0.001012714
     16        6           0.033302797   -0.012806092   -0.025044065
     17        1           0.003991429    0.000374472    0.000831834
     18        1          -0.001063699    0.002562282    0.000035372
     19        1          -0.002202279   -0.002086861   -0.000520966
     20        1           0.003963717   -0.004687159    0.001135618
     21        1          -0.001194577   -0.003343295    0.002723907
     22        1           0.002417821   -0.000860060    0.000259504
     23        1          -0.000344488    0.001905173   -0.002293361
     24        1           0.014696094   -0.022712729   -0.013393852
 -------------------------------------------------------------------
 Cartesian Forces:  Max     0.056055800 RMS     0.014630246
 Leave Link  716 at Fri Mar  6 16:27:13 2026, MaxMem=  2415919104 cpu:               0.1 elap:               0.1
 (Enter /prod/precompiled/gaussian/16c2/g16/l103.exe)

 GradGradGradGradGradGradGradGradGradGradGradGradGradGradGradGradGradGrad
 Berny optimization.
 Step   1 in ReCalcFC=30 IGetFC= 4 recover analytic Hessian.
 Search for a saddle point.
 Step number   1 out of a maximum of  144
 All quantities printed in internal units (Hartrees-Bohrs-Radians)
 Swapping is turned off.
 Second derivative matrix not updated -- analytic derivatives used.
 ITU=  0
     Eigenvalues ---   -0.07031  -0.00359   0.00070   0.00160   0.00390
     Eigenvalues ---    0.00827   0.01026   0.01400   0.01866   0.02170
     Eigenvalues ---    0.02279   0.02573   0.03107   0.03619   0.04216
     Eigenvalues ---    0.05017   0.05159   0.05233   0.05283   0.05842
     Eigenvalues ---    0.06247   0.06557   0.08030   0.08265   0.08380
     Eigenvalues ---    0.08881   0.09725   0.10289   0.11680   0.12314
     Eigenvalues ---    0.13537   0.16198   0.17061   0.18552   0.19346
     Eigenvalues ---    0.20254   0.20696   0.21023   0.22303   0.23753
     Eigenvalues ---    0.26486   0.29657   0.30116   0.36459   0.40896
     Eigenvalues ---    0.41854   0.45851   0.52606   0.57709   0.63186
     Eigenvalues ---    0.65011   0.78967   0.81091   0.83776   0.85688
     Eigenvalues ---    0.88393   0.89266   1.09423   1.10606   1.13262
     Eigenvalues ---    1.13406   1.26510   1.28247   1.32500   1.32920
     Eigenvalues ---    1.62088
 Eigenvectors required to have negative eigenvalues:
                          Y9        Y10       Y8        Y1        Y2
   1                    0.93039  -0.15401  -0.12618  -0.11338  -0.08615
                          Y11       X1        Z9        X9        X8
   1                   -0.08411  -0.07801  -0.07556   0.07293   0.07030
 Eigenvalue     2 is  -3.59D-03 should be greater than     0.000000 Eigenvector:
                          Z3        X24       Z18       Z19       X18
   1                    0.52830  -0.22637  -0.22444  -0.20404   0.18691
                          Y3        X23       X17       Z5        Z23
   1                   -0.18672  -0.17386   0.15914  -0.15674  -0.15569
 RFO step:  Lambda0=1.336031878D-03 Lambda=-4.61308300D-02.
 Linear search not attempted -- option 19 set.
 Maximum step size (   0.300) exceeded in Quadratic search.
    -- Step size scaled by   0.327
 B after Tr=    -0.000650    0.001118    0.006191
         Rot=    0.999999   -0.001215    0.000449    0.000001 Ang=  -0.15 deg.
 Variable       Old X    -DE/DX   Delta X   Delta X   Delta X     New X
                                 (Linear)    (Quad)   (Total)
    X1       -3.44749  -0.01695   0.00000   0.00218   0.00167  -3.44582
    Y1        2.45577   0.01710   0.00000  -0.00215  -0.00067   2.45510
    Z1       -0.16649   0.00299   0.00000   0.01622   0.02528  -0.14121
    X2       -2.19659  -0.01092   0.00000   0.00465   0.00404  -2.19255
    Y2        4.81636   0.01312   0.00000  -0.00540  -0.00419   4.81217
    Z2       -0.07679   0.00197   0.00000   0.03559   0.05151  -0.02528
    X3        1.04755  -0.03609   0.00000  -0.00947  -0.01050   1.03705
    Y3        5.20400   0.04091   0.00000   0.01259   0.01267   5.21668
    Z3        0.22423   0.03668   0.00000   0.19411   0.21391   0.43814
    X4       -3.56193  -0.00283   0.00000   0.01604   0.01560  -3.54634
    Y4        7.09170  -0.00698   0.00000  -0.01053  -0.00888   7.08282
    Z4       -0.21116  -0.00169   0.00000  -0.01375   0.00647  -0.20469
    X5       -6.18180   0.00539   0.00000   0.02250   0.02228  -6.15953
    Y5        7.08584  -0.00218   0.00000  -0.00932  -0.00706   7.07877
    Z5       -0.42419  -0.00019   0.00000  -0.04622  -0.02836  -0.45255
    X6       -7.45834   0.00587   0.00000   0.01681   0.01668  -7.44166
    Y6        4.79739  -0.01278   0.00000  -0.01077  -0.00826   4.78913
    Z6       -0.53461  -0.00004   0.00000  -0.03691  -0.02576  -0.56037
    X7       -6.10458  -0.00149   0.00000   0.00805   0.00779  -6.09679
    Y7        2.51969   0.01101   0.00000  -0.00670  -0.00452   2.51518
    Z7       -0.42093   0.00103   0.00000  -0.01184  -0.00501  -0.42594
    X8       -2.35194   0.02998   0.00000   0.03639   0.03574  -2.31620
    Y8       -0.00410   0.00437   0.00000  -0.00361  -0.00248  -0.00659
    Z8        0.00000  -0.00662   0.00000  -0.00091   0.00318   0.00318
    X9        0.00000   0.03878   0.00000   0.02909   0.02845   0.02845
    Y9        0.00000  -0.01543   0.00000   0.04079   0.04192   0.04192
    Z9        0.00000   0.00853   0.00000  -0.00447   0.00185   0.00185
   X10        2.66752  -0.05606   0.00000  -0.02883  -0.02943   2.63809
   Y10        0.00000  -0.00102   0.00000  -0.03464  -0.03338  -0.03338
   Z10        0.00000  -0.01604   0.00000  -0.05860  -0.05013  -0.05013
   X11        4.18050   0.01645   0.00000  -0.00207  -0.00369   4.17680
   Y11       -1.88894  -0.01100   0.00000  -0.00507  -0.00658  -1.89552
   Z11        1.09058   0.00532   0.00000  -0.01432  -0.00898   1.08160
   X12        2.91922  -0.00652   0.00000  -0.01015  -0.01329   2.90592
   Y12       -4.42162   0.00293   0.00000   0.03314   0.02753  -4.39410
   Z12        2.73238   0.00062   0.00000   0.04101   0.03914   2.77152
   X13        6.81728  -0.00655   0.00000  -0.00799  -0.00936   6.80792
   Y13       -1.84325   0.00644   0.00000   0.01623   0.01540  -1.82785
   Z13        0.80565  -0.00041   0.00000  -0.00885  -0.00098   0.80466
   X14        7.97904  -0.00291   0.00000  -0.01955  -0.01965   7.95939
   Y14        0.06851  -0.00001   0.00000   0.00770   0.01030   0.07881
   Z14       -0.58677   0.00309   0.00000  -0.02962  -0.01609  -0.60286
   X15        6.51249  -0.00973   0.00000  -0.02981  -0.02887   6.48362
   Y15        1.92896  -0.00481   0.00000  -0.01642  -0.01100   1.91796
   Z15       -1.71911   0.00101   0.00000  -0.05967  -0.04300  -1.76211
   X16        3.87984   0.03330   0.00000  -0.02029  -0.01958   3.86025
   Y16        1.88324  -0.01281   0.00000  -0.03308  -0.02831   1.85493
   Z16       -1.43772  -0.02504   0.00000  -0.07144  -0.05728  -1.49500
   X17       -2.56689   0.00399   0.00000   0.03303   0.03251  -2.53438
   Y17        8.88843   0.00037   0.00000  -0.01865  -0.01722   8.87121
   Z17       -0.13701   0.00083   0.00000  -0.00068   0.02480  -0.11222
   X18       -7.20879  -0.00106   0.00000   0.03074   0.03060  -7.17819
   Y18        8.86465   0.00256   0.00000  -0.00254  -0.00006   8.86459
   Z18       -0.50286   0.00004   0.00000  -0.06062  -0.03934  -0.54220
   X19       -9.50789  -0.00220   0.00000   0.01577   0.01580  -9.49209
   Y19        4.78044  -0.00209   0.00000  -0.00255   0.00040   4.78084
   Z19       -0.70396  -0.00052   0.00000  -0.04884  -0.03955  -0.74352
   X20       -7.15526   0.00396   0.00000   0.01624   0.01608  -7.13918
   Y20        0.75298  -0.00469   0.00000  -0.01350  -0.01105   0.74192
   Z20       -0.52801   0.00114   0.00000  -0.01121  -0.00963  -0.53764
   X21        7.96877  -0.00119   0.00000  -0.00136  -0.00350   7.96527
   Y21       -3.32270  -0.00334   0.00000   0.02988   0.02697  -3.29573
   Z21        1.64225   0.00272   0.00000   0.01275   0.01809   1.66034
   X22       10.02414   0.00242   0.00000  -0.01701  -0.01692  10.00723
   Y22        0.08323  -0.00086   0.00000   0.02252   0.02562   0.10885
   Z22       -0.80630   0.00026   0.00000  -0.02115  -0.00572  -0.81202
   X23        7.40586  -0.00034   0.00000  -0.03656  -0.03462   7.37124
   Y23        3.40164   0.00191   0.00000  -0.00126   0.00685   3.40850
   Z23       -2.84253  -0.00229   0.00000  -0.04861  -0.02753  -2.87006
   X24        2.75292   0.01470   0.00000  -0.03937  -0.03783   2.71509
   Y24        3.31524  -0.02271   0.00000  -0.03102  -0.02400   3.29124
   Z24       -2.39037  -0.01339   0.00000  -0.04348  -0.02686  -2.41724
         Item               Value     Threshold  Converged?
 Maximum Force            0.056056     0.000450     NO 
 RMS     Force            0.014630     0.000300     NO 
 Maximum Displacement     0.213907     0.001800     NO 
 RMS     Displacement     0.034361     0.001200     NO 
 Predicted change in Energy=-1.374768D-02
 Lowest energy point so far.  Saving SCF results.
 Step   1 in ReCalcFC=30 IGetFC= 0 compute gradient.
 GradGradGradGradGradGradGradGradGradGradGradGradGradGradGradGradGradGrad

 Leave Link  103 at Fri Mar  6 16:27:14 2026, MaxMem=  2415919104 cpu:               0.2 elap:               0.2
 (Enter /prod/precompiled/gaussian/16c2/g16/l202.exe)
                          Input orientation:                          
 ---------------------------------------------------------------------
 Center     Atomic      Atomic             Coordinates (Angstroms)
 Number     Number       Type             X           Y           Z
 ---------------------------------------------------------------------
      1          6           0       -1.823449    1.299184   -0.074723
      2          6           0       -1.160249    2.546490   -0.013376
      3         17           0        0.548785    2.760547    0.231855
      4          6           0       -1.876640    3.748066   -0.108316
      5          6           0       -3.259481    3.745926   -0.239479
      6          6           0       -3.937956    2.534300   -0.296537
      7          6           0       -3.226280    1.330974   -0.225396
      8          7           0       -1.225682   -0.003486    0.001684
      9          7           0        0.015053    0.022181    0.000978
     10          6           0        1.396015   -0.017666   -0.026527
     11          6           0        2.210269   -1.003063    0.572358
     12         17           0        1.537748   -2.325255    1.466625
     13          6           0        3.602598   -0.967258    0.425810
     14          6           0        4.211928    0.041703   -0.319019
     15          6           0        3.430982    1.014940   -0.932470
     16          6           0        2.042759    0.981585   -0.791120
     17          1           0       -1.341134    4.694445   -0.059382
     18          1           0       -3.798535    4.690937   -0.286919
     19          1           0       -5.022997    2.529911   -0.393453
     20          1           0       -3.777893    0.392610   -0.284507
     21          1           0        4.215039   -1.744026    0.878613
     22          1           0        5.295597    0.057601   -0.429703
     23          1           0        3.900691    1.803700   -1.518771
     24          1           0        1.436762    1.741647   -1.279147
 ---------------------------------------------------------------------
                    Distance matrix (angstroms):
                    1          2          3          4          5
     1  C    0.000000
     2  C    1.413991   0.000000
     3  Cl   2.803046   1.739757   0.000000
     4  C    2.449690   1.402146   2.640757   0.000000
     5  C    2.841809   2.428280   3.961820   1.389050   0.000000
     6  C    2.458831   2.792129   4.523409   2.399516   1.389827
     7  C    1.411257   2.406433   4.062496   2.770843   2.415221
     8  N    1.435310   2.550860   3.292657   3.809198   4.272305
     9  N    2.239768   2.784542   2.799432   4.180032   4.964541
    10  C    3.478702   3.620712   2.915995   4.989760   5.990294
    11  C    4.689344   4.929788   4.128103   6.303917   7.289043
    12  Cl   5.177834   5.762247   5.326170   7.143089   7.923600
    13  C    5.901634   5.934983   4.822854   7.248560   8.351338
    14  C    6.169823   5.935289   4.595018   7.131072   8.339637
[...]
 Alpha  occ. eigenvalues --   -0.72602  -0.70276  -0.66839  -0.65093  -0.60688
 Alpha  occ. eigenvalues --   -0.59428  -0.58402  -0.57737  -0.55210  -0.54244
 Alpha  occ. eigenvalues --   -0.53613  -0.52839  -0.52445  -0.51057  -0.48804
 Alpha  occ. eigenvalues --   -0.48049  -0.47724  -0.45978  -0.45509  -0.43775
 Alpha  occ. eigenvalues --   -0.43475  -0.41822  -0.40812  -0.39019  -0.36690
 Alpha  occ. eigenvalues --   -0.35688  -0.34050  -0.32286  -0.25056
 Alpha virt. eigenvalues --   -0.02733   0.03269   0.05888   0.06489   0.07791
 Alpha virt. eigenvalues --    0.10608   0.12123   0.15152   0.17140   0.17559
 Alpha virt. eigenvalues --    0.19016   0.20765   0.21185   0.21853   0.22178
 Alpha virt. eigenvalues --    0.23384   0.23556   0.25504   0.29824   0.32518
 Alpha virt. eigenvalues --    0.33429   0.34286   0.35038   0.35845   0.36344
 Alpha virt. eigenvalues --    0.37223   0.38917   0.40264   0.41143   0.44967
 Alpha virt. eigenvalues --    0.45814   0.46286   0.47117   0.49415   0.50116
 Alpha virt. eigenvalues --    0.51339   0.52129   0.52689   0.53200   0.53919
 Alpha virt. eigenvalues --    0.55213   0.55435   0.55750   0.57629   0.58559
 Alpha virt. eigenvalues --    0.59689   0.59781   0.60181   0.61359   0.62351
 Alpha virt. eigenvalues --    0.64074   0.65440   0.65935   0.67672   0.67945
 Alpha virt. eigenvalues --    0.69503   0.69603   0.71322   0.72286   0.73105
 Alpha virt. eigenvalues --    0.73489   0.74196   0.74313   0.74916   0.76531
 Alpha virt. eigenvalues --    0.77218   0.77496   0.78223   0.78740   0.79048
 Alpha virt. eigenvalues --    0.79514   0.80489   0.80999   0.82573   0.82950
 Alpha virt. eigenvalues --    0.83686   0.85680   0.86629   0.87337   0.88451
 Alpha virt. eigenvalues --    0.88820   0.89437   0.90766   0.91608   0.92182
 Alpha virt. eigenvalues --    0.94063   0.94230   0.95645   0.95977   0.98977
 Alpha virt. eigenvalues --    1.02069   1.02702   1.02999   1.05178   1.06832
 Alpha virt. eigenvalues --    1.10063   1.11426   1.13644   1.15863   1.18978
 Alpha virt. eigenvalues --    1.21742   1.23004   1.24384   1.24943   1.28300
 Alpha virt. eigenvalues --    1.30196   1.31378   1.31712   1.32475   1.32673
 Alpha virt. eigenvalues --    1.34690   1.35372   1.35631   1.36570   1.37000
 Alpha virt. eigenvalues --    1.38998   1.39280   1.45573   1.48498   1.50386
 Alpha virt. eigenvalues --    1.55939   1.58046   1.58390   1.59311   1.63202
 Alpha virt. eigenvalues --    1.67490   1.72790   1.74569   1.76231   1.77077
 Alpha virt. eigenvalues --    1.79130   1.79652   1.80195   1.82107   1.83159
 Alpha virt. eigenvalues --    1.83540   1.84185   1.84774   1.85123   1.86898
 Alpha virt. eigenvalues --    1.88604   1.89066   1.89906   1.92323   1.95482
 Alpha virt. eigenvalues --    1.97931   1.98244   2.00133   2.01063   2.01631
 Alpha virt. eigenvalues --    2.03236   2.04011   2.06321   2.07541   2.09935
 Alpha virt. eigenvalues --    2.11401   2.12752   2.15901   2.16612   2.18478
 Alpha virt. eigenvalues --    2.20567   2.21195   2.22722   2.25086   2.29066
 Alpha virt. eigenvalues --    2.30086   2.31348   2.33731   2.34046   2.34230
 Alpha virt. eigenvalues --    2.36802   2.37915   2.38447   2.39299   2.40048
 Alpha virt. eigenvalues --    2.42122   2.46364   2.50066   2.52091   2.58242
 Alpha virt. eigenvalues --    2.63066   2.64571   2.68311   2.68426   2.68876
 Alpha virt. eigenvalues --    2.70573   2.72876   2.75903   2.78335   2.81062
 Alpha virt. eigenvalues --    2.81501   2.81962   2.87832   2.89440   2.91366
 Alpha virt. eigenvalues --    2.92420   2.95272   3.04889   3.08350   3.13229
 Alpha virt. eigenvalues --    3.15612   3.20220   3.24112   3.39981   3.46144
 Alpha virt. eigenvalues --    3.60550   3.66533   3.88215
          Condensed to atoms (all electrons):
               1          2          3          4          5          6
     1  C    5.213892   0.180463  -0.060472   0.084768  -0.137965   0.093159
     2  C    0.180463   5.302600   0.259807   0.336575   0.086502  -0.149076
     3  Cl  -0.060472   0.259807  16.904911  -0.056512   0.002555   0.000702
     4  C    0.084768   0.336575  -0.056512   4.978944   0.311224   0.075393
     5  C   -0.137965   0.086502   0.002555   0.311224   5.043636   0.277834
     6  C    0.093159  -0.149076   0.000702   0.075393   0.277834   5.096060
     7  C    0.359853   0.037863   0.001417  -0.102245   0.074681   0.280116
     8  N    0.352374  -0.063659  -0.005590   0.003780  -0.000214   0.007560
     9  N   -0.084821  -0.007667  -0.001347  -0.000945   0.000049  -0.000412
    10  C   -0.001101  -0.000265  -0.007182  -0.000024  -0.000006   0.000005
    11  C    0.000630   0.000334   0.000804   0.000019   0.000001   0.000000
    12  Cl   0.004496   0.000525  -0.000003  -0.000070   0.000003  -0.000024
    13  C   -0.000010  -0.000005  -0.000456  -0.000000   0.000000  -0.000000
    14  C   -0.000003   0.000001   0.000136   0.000000  -0.000000   0.000000
    15  C    0.000013  -0.000001  -0.000929  -0.000000   0.000000   0.000000
    16  C    0.000546   0.000106   0.010196   0.000015  -0.000000  -0.000000
    17  H    0.016050  -0.062913   0.002416   0.439481  -0.057482   0.012363
    18  H   -0.001768   0.013804  -0.000114  -0.059669   0.444960  -0.063382
    19  H    0.012799  -0.001361   0.000007   0.011892  -0.063737   0.449352
    20  H   -0.061879   0.021408  -0.000047  -0.003063   0.012470  -0.068807
    21  H   -0.000001  -0.000000  -0.000001   0.000000  -0.000000   0.000000
    22  H    0.000000  -0.000000   0.000000  -0.000000  -0.000000  -0.000000
    23  H   -0.000000   0.000000  -0.000014  -0.000000  -0.000000   0.000000
    24  H   -0.000084  -0.000050   0.002043   0.000003  -0.000000   0.000000
               7          8          9         10         11         12
     1  C    0.359853   0.352374  -0.084821  -0.001101   0.000630   0.004496
     2  C    0.037863  -0.063659  -0.007667  -0.000265   0.000334   0.000525
     3  Cl   0.001417  -0.005590  -0.001347  -0.007182   0.000804  -0.000003
     4  C   -0.102245   0.003780  -0.000945  -0.000024   0.000019  -0.000070
     5  C    0.074681  -0.000214   0.000049  -0.000006   0.000001   0.000003
     6  C    0.280116   0.007560  -0.000412   0.000005   0.000000  -0.000024
     7  C    5.034394  -0.074320   0.006891  -0.000265  -0.000060  -0.000510
     8  N   -0.074320   6.541839   0.304525  -0.057204   0.003643  -0.002086
     9  N    0.006891   0.304525   6.615931   0.366590  -0.072366  -0.001829
    10  C   -0.000265  -0.057204   0.366590   5.102176   0.240227  -0.066998
    11  C   -0.000060   0.003643  -0.072366   0.240227   5.254872   0.242449
    12  Cl  -0.000510  -0.002086  -0.001829  -0.066998   0.242449  16.963069
    13  C   -0.000001  -0.000044   0.005843   0.081799   0.367048  -0.041640
    14  C    0.000000  -0.000005  -0.000004  -0.134108   0.075642   0.002279
    15  C    0.000000  -0.000020   0.008094   0.102750  -0.159482   0.000654
    16  C    0.000007   0.003298  -0.066620   0.293627   0.092889   0.001768
    17  H   -0.002048  -0.000081   0.000040   0.000010  -0.000002   0.000000
    18  H    0.012374   0.000005   0.000000   0.000000  -0.000000   0.000000
    19  H   -0.062135  -0.000111   0.000005  -0.000000  -0.000000   0.000000
    20  H    0.435764   0.004482   0.000314   0.000009  -0.000006   0.000053
    21  H    0.000000   0.000001  -0.000073   0.016830  -0.066834   0.000426
    22  H   -0.000000  -0.000000   0.000004  -0.001912   0.014748  -0.000100
    23  H   -0.000000  -0.000000  -0.000116   0.014388  -0.001142   0.000006
    24  H    0.000003   0.000973  -0.010371  -0.076109   0.016207  -0.000086
              13         14         15         16         17         18
     1  C   -0.000010  -0.000003   0.000013   0.000546   0.016050  -0.001768
     2  C   -0.000005   0.000001  -0.000001   0.000106  -0.062913   0.013804
     3  Cl  -0.000456   0.000136  -0.000929   0.010196   0.002416  -0.000114
     4  C   -0.000000   0.000000  -0.000000   0.000015   0.439481  -0.059669
     5  C    0.000000  -0.000000   0.000000  -0.000000  -0.057482   0.444960
     6  C   -0.000000   0.000000   0.000000  -0.000000   0.012363  -0.063382
     7  C   -0.000001   0.000000   0.000000   0.000007  -0.002048   0.012374
     8  N   -0.000044  -0.000005  -0.000020   0.003298  -0.000081   0.000005
     9  N    0.005843  -0.000004   0.008094  -0.066620   0.000040   0.000000
    10  C    0.081799  -0.134108   0.102750   0.293627   0.000010   0.000000
    11  C    0.367048   0.075642  -0.159482   0.092889  -0.000002  -0.000000
    12  Cl  -0.041640   0.002279   0.000654   0.001768   0.000000   0.000000
    13  C    4.941688   0.310949   0.086747  -0.116726   0.000000  -0.000000
    14  C    0.310949   5.093289   0.294202   0.056695   0.000000   0.000000
    15  C    0.086747   0.294202   5.030779   0.317258   0.000000  -0.000000
    16  C   -0.116726   0.056695   0.317258   5.073697  -0.000003   0.000000
    17  H    0.000000   0.000000   0.000000  -0.000003   0.633561  -0.011069
    18  H   -0.000000   0.000000  -0.000000   0.000000  -0.011069   0.635176
    19  H    0.000000  -0.000000   0.000000  -0.000000  -0.000177  -0.010307
    20  H    0.000000  -0.000000  -0.000000  -0.000000   0.000028  -0.000180
    21  H    0.440918  -0.060001   0.012469  -0.001706  -0.000000  -0.000000
    22  H   -0.065094   0.450331  -0.067375   0.013166  -0.000000   0.000000
    23  H    0.012318  -0.065322   0.441285  -0.060413   0.000000  -0.000000
    24  H   -0.002529   0.013922  -0.064016   0.460646  -0.000000   0.000000
              19         20         21         22         23         24
     1  C    0.012799  -0.061879  -0.000001   0.000000  -0.000000  -0.000084
     2  C   -0.001361   0.021408  -0.000000  -0.000000   0.000000  -0.000050
     3  Cl   0.000007  -0.000047  -0.000001   0.000000  -0.000014   0.002043
     4  C    0.011892  -0.003063   0.000000  -0.000000  -0.000000   0.000003
     5  C   -0.063737   0.012470  -0.000000  -0.000000  -0.000000  -0.000000
     6  C    0.449352  -0.068807   0.000000  -0.000000   0.000000   0.000000
     7  C   -0.062135   0.435764   0.000000  -0.000000  -0.000000   0.000003
     8  N   -0.000111   0.004482   0.000001  -0.000000  -0.000000   0.000973
     9  N    0.000005   0.000314  -0.000073   0.000004  -0.000116  -0.010371
    10  C   -0.000000   0.000009   0.016830  -0.001912   0.014388  -0.076109
    11  C   -0.000000  -0.000006  -0.066834   0.014748  -0.001142   0.016207
    12  Cl   0.000000   0.000053   0.000426  -0.000100   0.000006  -0.000086
    13  C    0.000000   0.000000   0.440918  -0.065094   0.012318  -0.002529
    14  C   -0.000000  -0.000000  -0.060001   0.450331  -0.065322   0.013922
    15  C    0.000000  -0.000000   0.012469  -0.067375   0.441285  -0.064016
    16  C   -0.000000  -0.000000  -0.001706   0.013166  -0.060413   0.460646
    17  H   -0.000177   0.000028  -0.000000  -0.000000   0.000000  -0.000000
    18  H   -0.010307  -0.000180  -0.000000   0.000000  -0.000000   0.000000
    19  H    0.635917  -0.009731   0.000000  -0.000000   0.000000  -0.000000
    20  H   -0.009731   0.636305  -0.000000   0.000000   0.000000  -0.000001
    21  H    0.000000  -0.000000   0.650763  -0.011528  -0.000233   0.000011
    22  H   -0.000000   0.000000  -0.011528   0.660773  -0.011041  -0.000190
    23  H    0.000000   0.000000  -0.000233  -0.011041   0.658379  -0.012228
    24  H   -0.000000  -0.000001   0.000011  -0.000190  -0.012228   0.662890
 Mulliken charges:
               1
     1  C    0.029061
     2  C    0.045008
     3  Cl  -0.052328
     4  C   -0.019563
     5  C    0.005489
     6  C   -0.010844
     7  C   -0.001780
     8  N   -0.019147
     9  N   -0.061715
    10  C    0.126762
    11  C   -0.009619
    12  Cl  -0.102383
    13  C   -0.020806
    14  C   -0.038003
    15  C   -0.002429
    16  C   -0.078444
    17  H    0.029827
    18  H    0.040171
    19  H    0.037589
    20  H    0.032881
    21  H    0.018958
    22  H    0.018216
    23  H    0.024132
    24  H    0.008968
 Sum of Mulliken charges =  -0.00000
 Mulliken charges with hydrogens summed into heavy atoms:
               1
     1  C    0.029061
     2  C    0.045008
     3  Cl  -0.052328
     4  C    0.010264
     5  C    0.045660
     6  C    0.026744
     7  C    0.031100
     8  N   -0.019147
     9  N   -0.061715
    10  C    0.126762
    11  C   -0.009619
    12  Cl  -0.102383
    13  C   -0.001848
    14  C   -0.019787
    15  C    0.021704
    16  C   -0.069477
 APT charges:
               1
     1  C   -0.704578
     2  C   -0.293546
     3  Cl   0.053478
     4  C   -0.509514
     5  C   -0.546862
     6  C   -0.530781
     7  C   -0.302352
     8  N   -0.022388
     9  N   -0.087123
    10  C   -0.362874
    11  C   -0.472836
    12  Cl  -0.019937
    13  C   -0.387123
    14  C   -0.620532
    15  C   -0.462138
    16  C   -0.592181
    17  H    0.763891
    18  H    1.113419
    19  H    0.875105
    20  H    0.253675
    21  H    0.574985
    22  H    0.971685
    23  H    0.890212
    24  H    0.418317
 Sum of APT charges =  -0.00000
 APT charges with hydrogens summed into heavy atoms:
               1
     1  C   -0.704578
     2  C   -0.293546
     3  Cl   0.053478
     4  C    0.254377
     5  C    0.566557
     6  C    0.344324
     7  C   -0.048678
     8  N   -0.022388
     9  N   -0.087123
    10  C   -0.362874
    11  C   -0.472836
    12  Cl  -0.019937
    13  C    0.187862
    14  C    0.351153
    15  C    0.428075
    16  C   -0.173864
 Electronic spatial extent (au):  <R**2>=           5077.1094
 Charge=             -0.0000 electrons
 Dipole moment (field-independent basis, Debye):
    X=             -2.1638    Y=              2.2792    Z=              0.1181  Tot=              3.1450
 Quadrupole moment (field-independent basis, Debye-Ang):
   XX=            -87.8354   YY=            -98.5002   ZZ=           -105.1733
   XY=             -6.9555   XZ=             -3.2535   YZ=              0.5905
 Traceless Quadrupole moment (field-independent basis, Debye-Ang):
   XX=              9.3342   YY=             -1.3306   ZZ=             -8.0036
   XY=             -6.9555   XZ=             -3.2535   YZ=              0.5905
 Octapole moment (field-independent basis, Debye-Ang**2):
  XXX=            -83.7261  YYY=           -319.7768  ZZZ=             15.0129  XYY=            -52.8044
  XXY=            -92.8646  XXZ=             13.8486  XZZ=             -7.9315  YZZ=           -118.2474
  YYZ=             23.1366  XYZ=            -20.1218
 Hexadecapole moment (field-independent basis, Debye-Ang**3):
 XXXX=          -3320.8247 YYYY=          -2345.4236 ZZZZ=           -650.0364 XXXY=            523.3271
 XXXZ=             39.7362 YYYX=            528.0731 YYYZ=            190.4300 ZZZX=             72.5487
 ZZZY=             88.3286 XXYY=           -971.3526 XXZZ=           -722.8537 YYZZ=           -530.7429
 XXYZ=             43.6574 YYXZ=            -22.4751 ZZXY=            228.8242
 N-N= 1.226612556184D+03 E-N=-5.963353756922D+03  KE= 1.483120909730D+03
  Exact polarizability:       0.000       0.000       0.000       0.000       0.000       0.000
 Approx polarizability:     267.565      -8.536     154.318     -13.158      -2.376     145.768
 No NMR shielding tensors so no spin-rotation constants.
 Leave Link  601 at Fri Mar  6 17:04:05 2026, MaxMem=  2415919104 cpu:               0.7 elap:               0.2
 (Enter /prod/precompiled/gaussian/16c2/g16/l716.exe)
 Dipole        =-8.51319900D-01 8.96697673D-01 4.64696762D-02
 Polarizability= 0.00000000D+00 0.00000000D+00 0.00000000D+00
                 0.00000000D+00 0.00000000D+00 0.00000000D+00
 -------------------------------------------------------------------
 Center     Atomic                   Forces (Hartrees/Bohr)
 Number     Number              X              Y              Z
 -------------------------------------------------------------------
      1        6          -0.000000406   -0.000000134   -0.000000831
      2        6           0.000000055   -0.000000186    0.000000238
      3       17          -0.000000319    0.000000212    0.000001218
      4        6          -0.000000920    0.000000121    0.000000413
      5        6           0.000000269   -0.000000325    0.000000090
      6        6          -0.000000610   -0.000000056   -0.000000793
      7        6           0.000000789   -0.000000224   -0.000001050
      8        7           0.000000210    0.000000144   -0.000000599
      9        7           0.000001156    0.000000013   -0.000000260
     10        6           0.000000564    0.000000561    0.000000050
     11        6          -0.000000541    0.000000184   -0.000000746
     12       17           0.000001463   -0.000000246   -0.000002758
     13        6          -0.000000611    0.000000745   -0.000001704
     14        6          -0.000000642    0.000000150   -0.000000154
     15        6           0.000000269    0.000000741    0.000000882
     16        6          -0.000001074    0.000000770   -0.000001027
     17        1          -0.000000354   -0.000000473    0.000000577
     18        1          -0.000000212   -0.000000074    0.000000179
     19        1           0.000000498    0.000000030   -0.000000596
     20        1           0.000000083   -0.000000243   -0.000001068
     21        1           0.000000448   -0.000000869    0.000002256
     22        1          -0.000000343    0.000000071    0.000000539
     23        1          -0.000000447   -0.000000087    0.000001119
     24        1           0.000000674   -0.000000824    0.000004024
 -------------------------------------------------------------------
 Cartesian Forces:  Max     0.000004024 RMS     0.000000882
 Leave Link  716 at Fri Mar  6 17:04:05 2026, MaxMem=  2415919104 cpu:               0.1 elap:               0.1
 (Enter /prod/precompiled/gaussian/16c2/g16/l9999.exe)
 Unable to Open any file for archive entry.
 1\1\GINC-AMD38\FTS\RwB97XD\def2SVP\C12H8Cl2N2\SVELA\06-Mar-2026\0\\#p 
 nosymm scf=(maxconventionalcycles=200,xqc) wB97XD def2SVP opt=(TS,NoEi
 genTest,RecalcFC=30,Cartesian,SkipDihedral,MaxCycles=300)\\Title Card\
 \0,1\C,-1.7062425763,1.5688991794,-0.557189632\C,-1.1932990557,2.80310
 67604,-0.1262758394\Cl,0.4734664973,3.2431622451,-0.3416399037\C,-2.04
 58661537,3.7432893371,0.4517933464\C,-3.3997603911,3.4593132978,0.6116
 358809\C,-3.9210921832,2.2427636578,0.1723708632\C,-3.0752321976,1.317
 0536414,-0.4243825719\N,-0.9896369727,0.4852236077,-1.1795202757\N,0.1
 975927438,0.3654847319,-0.9624579996\C,1.4779611185,0.1851864339,-0.67
 14516243\C,1.8528836931,-0.4319925048,0.549902846\Cl,0.5883711813,-0.9
 193496546,1.6474089568\C,3.1887859839,-0.6382613266,0.8612183249\C,4.1
 94633184,-0.2155544206,-0.0070161183\C,3.8372238619,0.4145794096,-1.19
 96782546\C,2.5075367147,0.6119985969,-1.5448304383\H,-1.6337345611,4.7
 011012331,0.7725001042\H,-4.0516873934,4.2037722354,1.0728846303\H,-4.
 983698223,2.0223120056,0.2858319388\H,-3.4422255479,0.3593225671,-0.79
 85698366\H,3.4311161619,-1.1266568943,1.8067135689\H,5.242413106,-0.37
 50990149,0.2495541055\H,4.6118673801,0.7575897633,-1.8891217735\H,2.23
 25546292,1.0987451123,-2.480601298\\Version=ES64L-G16RevC.02\HF=-1490.
 9841062\RMSD=9.465e-09\RMSF=8.824e-07\Dipole=-0.8513199,0.8966977,0.04
 64697\Polar=0.,0.,0.,0.,0.,0.\Quadrupole=6.9397436,-0.9892431,-5.95050
 05,-5.1712617,-2.4188754,0.4390014\PG=C01 [X(C12H8Cl2N2)]\\@
 The archive entry for this job was punched.


 MICHAEL FARADAY, ASKED BY A POLITICIAN WHAT GOOD
 HIS ELECTRICAL DISCOVERIES WERE, REPLIED 
 "AT PRESENT I DO NOT KNOW, BUT ONE DAY YOU WILL BE
 ABLE TO TAX THEM."
 Job cpu time:       0 days  6 hours  6 minutes 22.9 seconds.
 Elapsed time:       0 days  0 hours 38 minutes 26.5 seconds.
 File lengths (MBytes):  RWF=    245 Int=      0 D2E=      0 Chk=      7 Scr=      1
 Normal termination of Gaussian 16 at Fri Mar  6 17:04:05 2026.
