 Entering Gaussian System, Link 0=g16
 Initial command:
 /prod/precompiled/gaussian/16c2/g16/l1.exe "/scratch/ucsscms/svela/2076359/Gau-1224676.inp" -scrdir="/scratch/ucsscms/svela/2076359/"
 Entering Link 1 = /prod/precompiled/gaussian/16c2/g16/l1.exe PID=   1224678.
  
 Copyright (c) 1988-2021, Gaussian, Inc.  All Rights Reserved.
  
 This is part of the Gaussian(R) 16 program.  It is based on
 the Gaussian(R) 09 system (copyright 2009, Gaussian, Inc.),
 the Gaussian(R) 03 system (copyright 2003, Gaussian, Inc.),
 the Gaussian(R) 98 system (copyright 1998, Gaussian, Inc.),
 the Gaussian(R) 94 system (copyright 1995, Gaussian, Inc.),
 the Gaussian 92(TM) system (copyright 1992, Gaussian, Inc.),
 the Gaussian 90(TM) system (copyright 1990, Gaussian, Inc.),
 the Gaussian 88(TM) system (copyright 1988, Gaussian, Inc.),
 the Gaussian 86(TM) system (copyright 1986, Carnegie Mellon
 University), and the Gaussian 82(TM) system (copyright 1983,
 Carnegie Mellon University). Gaussian is a federally registered
 trademark of Gaussian, Inc.
  
 This software contains proprietary and confidential information,
 including trade secrets, belonging to Gaussian, Inc.
  
 This software is provided under written license and may be
 used, copied, transmitted, or stored only in accord with that
 written license.
  
 The following legend is applicable only to US Government
 contracts under FAR:
  
                    RESTRICTED RIGHTS LEGEND
  
 Use, reproduction and disclosure by the US Government is
 subject to restrictions as set forth in subparagraphs (a)
 and (c) of the Commercial Computer Software - Restricted
 Rights clause in FAR 52.227-19.
  
 Gaussian, Inc.
 340 Quinnipiac St., Bldg. 40, Wallingford CT 06492
  
  
 ---------------------------------------------------------------
 Warning -- This program may not be used in any manner that
 competes with the business of Gaussian, Inc. or will provide
 assistance to any competitor of Gaussian, Inc.  The licensee
 of this program is prohibited from giving any competitor of
 Gaussian, Inc. access to this program.  By using this program,
 the user acknowledges that Gaussian, Inc. is engaged in the
 business of creating and licensing software in the field of
 computational chemistry and represents and warrants to the
 licensee that it is not a competitor of Gaussian, Inc. and that
 it will not use this program in any manner prohibited above.
 ---------------------------------------------------------------
  

 Cite this work as:
 Gaussian 16, Revision C.02,
 M. J. Frisch, G. W. Trucks, H. B. Schlegel, G. E. Scuseria, 
 M. A. Robb, J. R. Cheeseman, G. Scalmani, V. Barone, 
 G. A. Petersson, H. Nakatsuji, X. Li, M. Caricato, A. V. Marenich, 
 J. Bloino, B. G. Janesko, R. Gomperts, B. Mennucci, H. P. Hratchian, 
 J. V. Ortiz, A. F. Izmaylov, J. L. Sonnenberg, D. Williams-Young, 
 F. Ding, F. Lipparini, F. Egidi, J. Goings, B. Peng, A. Petrone, 
 T. Henderson, D. Ranasinghe, V. G. Zakrzewski, J. Gao, N. Rega, 
 G. Zheng, W. Liang, M. Hada, M. Ehara, K. Toyota, R. Fukuda, 
 J. Hasegawa, M. Ishida, T. Nakajima, Y. Honda, O. Kitao, H. Nakai, 
 T. Vreven, K. Throssell, J. A. Montgomery, Jr., J. E. Peralta, 
 F. Ogliaro, M. J. Bearpark, J. J. Heyd, E. N. Brothers, K. N. Kudin, 
 V. N. Staroverov, T. A. Keith, R. Kobayashi, J. Normand, 
 K. Raghavachari, A. P. Rendell, J. C. Burant, S. S. Iyengar, 
 J. Tomasi, M. Cossi, J. M. Millam, M. Klene, C. Adamo, R. Cammi, 
 J. W. Ochterski, R. L. Martin, K. Morokuma, O. Farkas, 
 J. B. Foresman, and D. J. Fox, Gaussian, Inc., Wallingford CT, 2019.
 
 ******************************************
 Gaussian 16:  ES64L-G16RevC.02  7-Dec-2021
                 6-Mar-2026 
 ******************************************
 %nprocs=12
 Will use up to   12 processors via shared memory.
 %mem=18gb
 %chk=test_cis_opt_r1.chk
 ----------------------------------------------------------------------
 #p nosymm scf=(maxconventionalcycles=200,xqc) wB97XD def2SVP opt=(Reca
 lcFC=30,cartesian,skipdihedral)
 ----------------------------------------------------------------------
 1/10=7,18=10,26=3,38=1,71=30,156=2/1,3;
 2/12=2,15=1,17=6,18=5,29=2,40=1/2;
 3/5=43,7=101,11=2,25=1,30=1,71=2,74=-58,140=1/1,2,3;
 4//1;
 5/5=2,8=3,13=1,38=5,85=200/2,8;
 8/6=4,10=90,11=11/1;
 11/6=1,8=1,9=11,15=111,16=1,31=1/1,2,10;
 10/6=1,31=1/2;
 6/7=2,8=2,9=2,10=2,28=1/1;
 7/7=1,10=1,25=1,30=1/1,2,3,16;
 1/10=7,18=10,26=3,71=30,156=2/3(3);
 2/15=1,29=1/2;
 7/7=1,9=1,25=1,30=1,44=-1/16;
 99/12=1/99;
 2/15=1,29=1/2;
 3/5=43,7=101,11=2,25=1,30=1,71=2,74=-58,140=1/1,2,3;
 4/5=5,16=3,69=1/1;
 5/5=2,8=3,13=1,38=5,85=200/2,8;
 8/6=4,10=90,11=11/1;
 11/6=1,8=1,9=11,15=111,16=1,31=1/1,2,10;
 10/6=1,31=1/2;
 7/7=1,10=1,25=1,30=1/1,2,3,16;
 1/18=10,26=3,71=30,156=2/3(-8);
 2/15=1,29=1/2;
 6/7=2,8=2,9=2,10=2,19=2,28=1/1;
 7/7=1,9=1,25=1,30=1,44=-1/16;
 99/9=1,12=1/99;
 Leave Link    1 at Fri Mar  6 16:25:19 2026, MaxMem=  2415919104 cpu:               0.1 elap:               0.1
 (Enter /prod/precompiled/gaussian/16c2/g16/l101.exe)
 ----------
 Title Card
 ----------
 Symbolic Z-matrix:
 Charge =  0 Multiplicity = 1
 C                     0.        0.        0. 
 C                     0.9684   -0.03346   1.03051 
 Cl                    1.5822   -1.48182   1.76542 
 C                     1.50905   1.15454   1.55318 
 C                     1.10244   2.39624   1.07611 
 C                     0.16059   2.45946   0.05868 
 C                    -0.37526   1.27692  -0.47429 
 N                    -0.66275  -1.10517  -0.61454 
 N                    -0.13711  -2.20655  -0.37024 
 C                     1.27448  -2.20655  -0.37024 
 C                     2.07511  -1.17366  -0.88537 
 Cl                    1.40767   0.21703  -1.67089 
 C                     3.47044  -1.20698  -0.73634 
 C                     4.08521  -2.26166  -0.06252 
 C                     3.30915  -3.28085   0.47559 
 C                     1.91601  -3.24763   0.32843 
 H                     2.25188   1.10863   2.34621 
 H                     1.52274   3.30521   1.50069 
 H                    -0.16054   3.428    -0.31978 
 H                    -1.10628   1.3571   -1.27777 
 H                     4.07978  -0.39857  -1.13053 
 H                     5.16744  -2.27651   0.05296 
 H                     3.7819   -4.09494   1.02148 
 H                     1.31967  -4.03472   0.78544 
 
 ITRead=  0  0  0  0  0  0  0  0  0  0  0  0  0  0  0  0  0  0  0  0
 ITRead=  0  0  0  0
 MicOpt= -1 -1 -1 -1 -1 -1 -1 -1 -1 -1 -1 -1 -1 -1 -1 -1 -1 -1 -1 -1
 MicOpt= -1 -1 -1 -1
 NAtoms=     24 NQM=       24 NQMF=       0 NMMI=      0 NMMIF=      0
                NMic=       0 NMicF=      0.
                    Isotopes and Nuclear Properties:
 (Nuclear quadrupole moments (NQMom) in fm**2, nuclear magnetic moments (NMagM)
  in nuclear magnetons)

  Atom         1           2           3           4           5           6           7           8           9          10
 IAtWgt=          12          12          35          12          12          12          12          14          14          12
 AtmWgt=  12.0000000  12.0000000  34.9688527  12.0000000  12.0000000  12.0000000  12.0000000  14.0030740  14.0030740  12.0000000
 NucSpn=           0           0           3           0           0           0           0           2           2           0
 AtZEff=  -0.0000000  -0.0000000  -0.0000000  -0.0000000  -0.0000000  -0.0000000  -0.0000000  -0.0000000  -0.0000000  -0.0000000
 NQMom=    0.0000000   0.0000000  -8.1650000   0.0000000   0.0000000   0.0000000   0.0000000   2.0440000   2.0440000   0.0000000
 NMagM=    0.0000000   0.0000000   0.8218740   0.0000000   0.0000000   0.0000000   0.0000000   0.4037610   0.4037610   0.0000000
 AtZNuc=   6.0000000   6.0000000  17.0000000   6.0000000   6.0000000   6.0000000   6.0000000   7.0000000   7.0000000   6.0000000

  Atom        11          12          13          14          15          16          17          18          19          20
 IAtWgt=          12          35          12          12          12          12           1           1           1           1
 AtmWgt=  12.0000000  34.9688527  12.0000000  12.0000000  12.0000000  12.0000000   1.0078250   1.0078250   1.0078250   1.0078250
 NucSpn=           0           3           0           0           0           0           1           1           1           1
 AtZEff=  -0.0000000  -0.0000000  -0.0000000  -0.0000000  -0.0000000  -0.0000000  -0.0000000  -0.0000000  -0.0000000  -0.0000000
 NQMom=    0.0000000  -8.1650000   0.0000000   0.0000000   0.0000000   0.0000000   0.0000000   0.0000000   0.0000000   0.0000000
 NMagM=    0.0000000   0.8218740   0.0000000   0.0000000   0.0000000   0.0000000   2.7928460   2.7928460   2.7928460   2.7928460
 AtZNuc=   6.0000000  17.0000000   6.0000000   6.0000000   6.0000000   6.0000000   1.0000000   1.0000000   1.0000000   1.0000000

  Atom        21          22          23          24
 IAtWgt=           1           1           1           1
 AtmWgt=   1.0078250   1.0078250   1.0078250   1.0078250
 NucSpn=           1           1           1           1
 AtZEff=  -0.0000000  -0.0000000  -0.0000000  -0.0000000
 NQMom=    0.0000000   0.0000000   0.0000000   0.0000000
 NMagM=    2.7928460   2.7928460   2.7928460   2.7928460
 AtZNuc=   1.0000000   1.0000000   1.0000000   1.0000000
 Leave Link  101 at Fri Mar  6 16:25:19 2026, MaxMem=  2415919104 cpu:               0.1 elap:               0.1
 (Enter /prod/precompiled/gaussian/16c2/g16/l103.exe)

 GradGradGradGradGradGradGradGradGradGradGradGradGradGradGradGradGradGrad
 Berny optimization.
 Initialization pass.
 No Z-matrix variables, so optimization will use Cartesian coordinates.
 Trust Radius=3.00D-01 FncErr=1.00D-07 GrdErr=1.00D-06 EigMax=2.50D+02 EigMin=1.00D-04
 Number of steps in this run=     82 maximum allowed number of steps=    144.
 Step   0 in ReCalcFC=30 IGetFC= 4 compute analytic Hessian.
 GradGradGradGradGradGradGradGradGradGradGradGradGradGradGradGradGradGrad

 Leave Link  103 at Fri Mar  6 16:25:19 2026, MaxMem=  2415919104 cpu:               0.1 elap:               0.1
 (Enter /prod/precompiled/gaussian/16c2/g16/l202.exe)
 ---------------------------------------------------------------------------------------------------
                            Z-MATRIX (ANGSTROMS AND DEGREES)
   CD    Cent   Atom    N1       Length/X        N2       Alpha/Y        N3        Beta/Z          J
 ---------------------------------------------------------------------------------------------------
      1      1  C        0   0.000000          0.000000          0.000000
      2      2  C        0   0.968396         -0.033459          1.030506
      3      3  Cl       0   1.582196         -1.481824          1.765415
      4      4  C        0   1.509053          1.154537          1.553177
      5      5  C        0   1.102437          2.396241          1.076107
      6      6  C        0   0.160590          2.459462          0.058679
      7      7  C        0  -0.375257          1.276924         -0.474287
      8      8  N        0  -0.662752         -1.105174         -0.614540
      9      9  N        0  -0.137113         -2.206553         -0.370238
     10     10  C        0   1.274476         -2.206553         -0.370238
     11     11  C        0   2.075110         -1.173661         -0.885366
     12     12  Cl       0   1.407670          0.217027         -1.670887
     13     13  C        0   3.470437         -1.206981         -0.736340
     14     14  C        0   4.085214         -2.261659         -0.062521
     15     15  C        0   3.309146         -3.280850          0.475589
     16     16  C        0   1.916009         -3.247627          0.328434
     17     17  H        0   2.251882          1.108633          2.346210
     18     18  H        0   1.522735          3.305207          1.500686
     19     19  H        0  -0.160544          3.427998         -0.319782
     20     20  H        0  -1.106278          1.357099         -1.277765
     21     21  H        0   4.079776         -0.398569         -1.130525
     22     22  H        0   5.167436         -2.276511          0.052963
     23     23  H        0   3.781898         -4.094938          1.021485
     24     24  H        0   1.319669         -4.034717          0.785442
 ---------------------------------------------------------------------------------------------------
                         Z-Matrix orientation:                         
 ---------------------------------------------------------------------
 Center     Atomic      Atomic             Coordinates (Angstroms)
 Number     Number       Type             X           Y           Z
 ---------------------------------------------------------------------
      1          6           0        0.000000    0.000000    0.000000
      2          6           0        0.968396   -0.033459    1.030506
      3         17           0        1.582196   -1.481824    1.765415
      4          6           0        1.509053    1.154537    1.553177
      5          6           0        1.102437    2.396241    1.076107
      6          6           0        0.160590    2.459462    0.058679
      7          6           0       -0.375257    1.276924   -0.474287
      8          7           0       -0.662752   -1.105174   -0.614540
      9          7           0       -0.137113   -2.206553   -0.370238
     10          6           0        1.274476   -2.206553   -0.370238
     11          6           0        2.075110   -1.173661   -0.885366
     12         17           0        1.407670    0.217027   -1.670887
     13          6           0        3.470437   -1.206981   -0.736340
     14          6           0        4.085214   -2.261659   -0.062521
     15          6           0        3.309146   -3.280850    0.475589
     16          6           0        1.916009   -3.247627    0.328434
     17          1           0        2.251882    1.108633    2.346210
     18          1           0        1.522735    3.305207    1.500686
     19          1           0       -0.160544    3.427998   -0.319782
     20          1           0       -1.106278    1.357099   -1.277765
     21          1           0        4.079776   -0.398569   -1.130525
     22          1           0        5.167436   -2.276511    0.052963
     23          1           0        3.781898   -4.094938    1.021485
     24          1           0        1.319669   -4.034717    0.785442
 ---------------------------------------------------------------------
                    Distance matrix (angstroms):
                    1          2          3          4          5
     1  C    0.000000
     2  C    1.414515   0.000000
     3  Cl   2.795682   1.736261   0.000000
     4  C    2.454090   1.405998   2.645901   0.000000
     5  C    2.848744   2.433822   3.967959   1.390957   0.000000
     6  C    2.465398   2.794934   4.524118   2.398897   1.387888
     7  C    1.412905   2.405600   4.056917   2.770598   2.416645
     8  N    1.427694   2.552527   3.293303   3.810778   4.270139
     9  N    2.241596   2.811863   2.835890   4.207887   4.981376
    10  C    2.574926   2.603480   2.276167   3.879623   4.827756
    11  C    2.543115   2.489064   2.713774   3.418687   4.187800
    12  Cl   2.195563   2.748314   3.837281   3.359136   3.519676
    13  C    3.747390   3.280108   3.146390   3.829580   4.677136
    14  C    4.669902   3.984236   3.196027   4.573563   5.647076
    15  C    4.684080   4.041360   2.807579   4.906545   6.120421
    16  C    3.784976   3.423704   2.300958   4.587446   5.751014
    17  H    3.435803   2.163975   2.737932   1.087568   2.142970
    18  H    3.936391   3.416877   4.794714   2.151354   1.087721
    19  H    3.446622   3.883229   5.611732   3.385876   2.146660
    20  H    2.167545   3.400888   4.954626   3.859433   3.391010
    21  H    4.252237   3.805791   3.974647   4.027780   4.641631
    22  H    5.646920   4.859919   4.051909   5.235122   6.277392
    23  H    5.666983   4.940798   3.495781   5.745042   7.022670
    24  H    4.317104   4.024117   2.747095   5.249156   6.441188
                    6          7          8          9         10
     6  C    0.000000
     7  C    1.403418   0.000000
     8  N    3.719912   2.403480   0.000000
     9  N    4.695135   3.493158   1.244595   0.000000
    10  C    4.816265   3.855782   2.241779   1.411589   0.000000
    11  C    4.213810   3.489792   2.752077   2.495226   1.404720
    12  Cl   3.094369   2.394590   2.674085   3.154645   2.753755
    13  C    5.002994   4.585610   4.136236   3.761328   2.440373
    14  C    6.140549   5.708496   4.917862   4.233884   2.828069
    15  C    6.560366   5.937204   4.658103   3.707592   2.451412
    16  C    5.977050   5.134766   3.482716   2.405678   1.408383
    17  H    3.380982   3.858158   4.707661   4.906816   4.396006
    18  H    2.156411   3.408346   5.357424   6.052681   5.825932
    19  H    1.088311   2.167278   4.570420   5.634826   5.814636
    20  H    2.146216   1.089218   2.588314   3.802960   4.380777
    21  H    4.994253   4.804711   4.822562   4.650698   3.422945
    22  H    6.891878   6.605024   5.984036   5.321864   3.916520
    23  H    7.549902   6.955298   5.600909   4.567443   3.433665
    24  H    6.636717   5.716049   3.804230   2.607680   2.163290
                   11         12         13         14         15
    11  C    0.000000
    12  Cl   1.731050   0.000000
    13  C    1.403658   2.675105   0.000000
    14  C    2.429266   3.987476   1.394392   0.000000
    15  C    2.795584   4.523065   2.407430   1.389458   0.000000
    16  C    2.408310   4.032310   2.777450   2.414628   1.401281
    17  H    3.960202   4.200562   4.043397   4.530117   4.887186
    18  H    5.104765   4.428202   5.399784   6.324548   6.900597
    19  H    5.147164   3.820355   5.902590   7.103861   7.594735
    20  H    4.084110   2.788233   5.273895   6.443898   6.639337
    21  H    2.163228   2.794835   1.086373   2.147502   3.388365
    22  H    3.414560   4.829620   2.155620   1.088468   2.154194
    23  H    3.883692   5.610603   3.395181   2.151274   1.088226
    24  H    3.398225   4.911072   3.864934   3.392789   2.149964
                   16         17         18         19         20
    16  C    0.000000
    17  H    4.812612   0.000000
    18  H    6.668469   2.464042   0.000000
    19  H    7.021127   4.278641   2.482460   0.000000
    20  H    5.737386   4.946935   4.292624   2.469973   0.000000
    21  H    3.863623   4.207201   5.213414   5.768902   5.477153
    22  H    3.404516   5.021816   6.821680   7.814585   7.371122
    23  H    2.163284   5.583278   7.752135   8.598629   7.674993
    24  H    1.088112   5.455187   7.377486   7.687956   6.262086
                   21         22         23         24
    21  H    0.000000
    22  H    2.471905   0.000000
    23  H    4.287543   2.482826   0.000000
    24  H    4.950827   4.293382   2.474250   0.000000
 Symmetry turned off by external request.
 Stoichiometry    C12H8Cl2N2
 Framework group  C1[X(C12H8Cl2N2)]
 Deg. of freedom    66
 Full point group                 C1      NOp   1
 Rotational constants (GHZ):           0.8743226           0.4571295           0.4411212
 Leave Link  202 at Fri Mar  6 16:25:20 2026, MaxMem=  2415919104 cpu:               0.1 elap:               0.0
 (Enter /prod/precompiled/gaussian/16c2/g16/l301.exe)
 Standard basis: def2SVP (5D, 7F)
 Ernie: Thresh=  0.10000D-02 Tol=  0.10000D-05 Strict=F.
   272 basis functions,   480 primitive gaussians,   288 cartesian basis functions
    64 alpha electrons       64 beta electrons
       nuclear repulsion energy      1394.4727279935 Hartrees.
 IExCor= 4639 DFT=T Ex+Corr=wB97XD ExCW=0 ScaHFX=  1.000000
 ScaDFX=  1.000000  1.000000  1.000000  1.000000 ScalE2=  1.000000  1.000000
 IRadAn=      5 IRanWt=     -1 IRanGd=            0 ICorTp=0 IEmpDi=121
 HFx  wShort=  0.000000 wLong=  0.200000 cFull=  0.222036 cShort=  0.000000 cLong=  0.777964
 DFx  wShort=  0.000000 wLong=  0.200000 cFull=  0.000000 cShort=  0.000000 cLong=  1.000000
 NAtoms=   24 NActive=   24 NUniq=   24 SFac= 1.00D+00 NAtFMM=   60 NAOKFM=F Big=F
 Integral buffers will be    131072 words long.
 Raffenetti 2 integral format.
 Two-electron integral symmetry is turned off.
 R6Disp:  Grimme-D2 Dispersion energy=       -0.0178979500 Hartrees.
 Nuclear repulsion after empirical dispersion term =     1394.4548300435 Hartrees.
 Leave Link  301 at Fri Mar  6 16:25:20 2026, MaxMem=  2415919104 cpu:               0.1 elap:               0.1
 (Enter /prod/precompiled/gaussian/16c2/g16/l302.exe)
 NPDir=0 NMtPBC=     1 NCelOv=     1 NCel=       1 NClECP=     1 NCelD=      1
         NCelK=      1 NCelE2=     1 NClLst=     1 CellRange=     0.0.
 One-electron integrals computed using PRISM.
   1 Symmetry operations used in ECPInt.
 ECPInt:  NShTT=    7750 NPrTT=   30142 LenC2=    7515 LenP2D=   21238.
 LDataN:  DoStor=T MaxTD1= 4 Len=   56
 NBasis=   272 RedAO= T EigKep=  1.94D-04  NBF=   272
 NBsUse=   272 1.00D-06 EigRej= -1.00D+00 NBFU=   272
 Precomputing XC quadrature grid using
 IXCGrd= 4 IRadAn=           5 IRanWt=          -1 IRanGd=           0 AccXCQ= 0.00D+00.
 Generated NRdTot=       0 NPtTot=           0 NUsed=           0 NTot=          32
 NSgBfM=   287   287   287   287   287 MxSgAt=    24 MxSgA2=    24.
 Leave Link  302 at Fri Mar  6 16:25:20 2026, MaxMem=  2415919104 cpu:               0.9 elap:               0.4
 (Enter /prod/precompiled/gaussian/16c2/g16/l303.exe)
 DipDrv:  MaxL=1.
 Leave Link  303 at Fri Mar  6 16:25:20 2026, MaxMem=  2415919104 cpu:               0.1 elap:               0.1
 (Enter /prod/precompiled/gaussian/16c2/g16/l401.exe)
 ExpMin= 1.22D-01 ExpMax= 1.04D+04 ExpMxC= 1.57D+03 IAcc=3 IRadAn=         5 AccDes= 0.00D+00
 Harris functional with IExCor= 4639 and IRadAn=       5 diagonalized for initial guess.
 HarFok:  IExCor= 4639 AccDes= 0.00D+00 IRadAn=         5 IDoV= 1 UseB2=F ITyADJ=14
 ICtDFT=  3500011 ScaDFX=  1.000000  1.000000  1.000000  1.000000
 FoFCou: FMM=F IPFlag=           0 FMFlag=      100000 FMFlg1=           0
         NFxFlg=           0 DoJE=T BraDBF=F KetDBF=T FulRan=T
         wScrn=  0.000000 ICntrl=       500 IOpCl=  0 I1Cent=   200000004 NGrid=           0
         NMat0=    1 NMatS0=      1 NMatT0=    0 NMatD0=    1 NMtDS0=    0 NMtDT0=    0
 Symmetry not used in FoFCou.
 Harris En= -1450.60346482645    
 JPrj=0 DoOrth=F DoCkMO=F.
 Leave Link  401 at Fri Mar  6 16:25:21 2026, MaxMem=  2415919104 cpu:               6.4 elap:               0.7
 (Enter /prod/precompiled/gaussian/16c2/g16/l502.exe)
 Two-electron integral symmetry not used.
 Closed shell SCF:
 Using DIIS extrapolation, IDIIS=  1040.
 NGot=  2415919104 LenX=  2415746906 LenY=  2415663521
 Requested convergence on RMS density matrix=1.00D-08 within 200 cycles.
 Requested convergence on MAX density matrix=1.00D-06.
 Requested convergence on             energy=1.00D-06.
 No special actions if energy rises.
 Fock matrices will be formed incrementally for  20 cycles.
 Integral accuracy reduced to 1.0D-05 until final iterations.

 Cycle   1  Pass 0  IDiag  1:
 FoFJK:  IHMeth= 1 ICntrl=       0 DoSepK=T KAlg= 0 I1Cent=           0 FoldK=F
 IRaf=         1 NMat=       1 IRICut=       1 DoRegI=T DoRafI=F ISym2E= 0 IDoP0=0 IntGTp=1.
 FoFCou: FMM=F IPFlag=           0 FMFlag=      100000 FMFlg1=           0
         NFxFlg=           0 DoJE=T BraDBF=F KetDBF=F FulRan=T
         wScrn=  0.000000 ICntrl=       500 IOpCl=  0 I1Cent=           0 NGrid=           0
         NMat0=    1 NMatS0=      1 NMatT0=    0 NMatD0=    1 NMtDS0=    0 NMtDT0=    0
 Symmetry not used in FoFCou.
 E= -1490.32049009016    
 DIIS: error= 2.89D-02 at cycle   1 NSaved=   1.
 NSaved= 1 IEnMin= 1 EnMin= -1490.32049009016     IErMin= 1 ErrMin= 2.89D-02
 ErrMax= 2.89D-02  0.00D+00 EMaxC= 1.00D-01 BMatC= 7.93D-01 BMatP= 7.93D-01
 IDIUse=3 WtCom= 7.11D-01 WtEn= 2.89D-01
 Coeff-Com:  0.100D+01
 Coeff-En:   0.100D+01
 Coeff:      0.100D+01
 Gap=     0.387 Goal=   None    Shift=    0.000
 GapD=    0.387 DampG=1.000 DampE=0.500 DampFc=0.5000 IDamp=-1.
 Damping current iteration by 5.00D-01
 RMSDP=8.23D-03 MaxDP=3.32D-01              OVMax= 2.68D-01

 Cycle   2  Pass 0  IDiag  1:
 RMSU=  4.11D-03    CP:  9.92D-01
 E= -1490.56765578790     Delta-E=       -0.247165697738 Rises=F Damp=T
 DIIS: error= 1.23D-02 at cycle   2 NSaved=   2.
 NSaved= 2 IEnMin= 2 EnMin= -1490.56765578790     IErMin= 2 ErrMin= 1.23D-02
 ErrMax= 1.23D-02  0.00D+00 EMaxC= 1.00D-01 BMatC= 9.43D-02 BMatP= 7.93D-01
 IDIUse=3 WtCom= 8.77D-01 WtEn= 1.23D-01
 Coeff-Com: -0.223D+00 0.122D+01
 Coeff-En:   0.000D+00 0.100D+01
 Coeff:     -0.196D+00 0.120D+01
 Gap=     0.294 Goal=   None    Shift=    0.000
 RMSDP=3.65D-03 MaxDP=2.50D-01 DE=-2.47D-01 OVMax= 1.93D-01

 Cycle   3  Pass 0  IDiag  1:
 RMSU=  3.45D-03    CP:  9.50D-01  9.07D-01
 E= -1490.78255142877     Delta-E=       -0.214895640866 Rises=F Damp=F
 DIIS: error= 8.32D-03 at cycle   3 NSaved=   3.
 NSaved= 3 IEnMin= 3 EnMin= -1490.78255142877     IErMin= 3 ErrMin= 8.32D-03
 ErrMax= 8.32D-03  0.00D+00 EMaxC= 1.00D-01 BMatC= 3.75D-02 BMatP= 9.43D-02
 IDIUse=3 WtCom= 9.17D-01 WtEn= 8.32D-02
 Coeff-Com: -0.172D+00 0.532D+00 0.640D+00
 Coeff-En:   0.000D+00 0.000D+00 0.100D+01
 Coeff:     -0.158D+00 0.488D+00 0.670D+00
 Gap=     0.256 Goal=   None    Shift=    0.000
 RMSDP=1.68D-03 MaxDP=4.74D-02 DE=-2.15D-01 OVMax= 7.24D-02

 Cycle   4  Pass 0  IDiag  1:
 RMSU=  1.35D-03    CP:  9.50D-01  1.08D+00  7.91D-01
 E= -1490.81670329437     Delta-E=       -0.034151865597 Rises=F Damp=F
 DIIS: error= 3.12D-03 at cycle   4 NSaved=   4.
 NSaved= 4 IEnMin= 4 EnMin= -1490.81670329437     IErMin= 4 ErrMin= 3.12D-03
 ErrMax= 3.12D-03  0.00D+00 EMaxC= 1.00D-01 BMatC= 6.81D-03 BMatP= 3.75D-02
 IDIUse=3 WtCom= 9.69D-01 WtEn= 3.12D-02
 Coeff-Com: -0.503D-01 0.105D+00 0.338D+00 0.607D+00
 Coeff-En:   0.000D+00 0.000D+00 0.101D+00 0.899D+00
 Coeff:     -0.487D-01 0.102D+00 0.331D+00 0.616D+00
 Gap=     0.239 Goal=   None    Shift=    0.000
 RMSDP=6.24D-04 MaxDP=2.76D-02 DE=-3.42D-02 OVMax= 3.28D-02

 Cycle   5  Pass 0  IDiag  1:
 RMSU=  2.51D-04    CP:  9.45D-01  1.05D+00  9.21D-01  7.66D-01
 E= -1490.82428243684     Delta-E=       -0.007579142474 Rises=F Damp=F
 DIIS: error= 5.81D-04 at cycle   5 NSaved=   5.
 NSaved= 5 IEnMin= 5 EnMin= -1490.82428243684     IErMin= 5 ErrMin= 5.81D-04
 ErrMax= 5.81D-04  0.00D+00 EMaxC= 1.00D-01 BMatC= 1.92D-04 BMatP= 6.81D-03
 IDIUse=3 WtCom= 9.94D-01 WtEn= 5.81D-03
 Coeff-Com:  0.651D-05-0.876D-02 0.403D-01 0.170D+00 0.798D+00
 Coeff-En:   0.000D+00 0.000D+00 0.000D+00 0.000D+00 0.100D+01
 Coeff:      0.647D-05-0.871D-02 0.401D-01 0.169D+00 0.799D+00
 Gap=     0.239 Goal=   None    Shift=    0.000
 RMSDP=1.73D-04 MaxDP=4.11D-03 DE=-7.58D-03 OVMax= 1.39D-02

 Cycle   6  Pass 0  IDiag  1:
 RMSU=  1.26D-04    CP:  9.45D-01  1.06D+00  9.30D-01  8.45D-01  1.14D+00
 E= -1490.82476651691     Delta-E=       -0.000484080069 Rises=F Damp=F
 DIIS: error= 3.12D-04 at cycle   6 NSaved=   6.
 NSaved= 6 IEnMin= 6 EnMin= -1490.82476651691     IErMin= 6 ErrMin= 3.12D-04
 ErrMax= 3.12D-04  0.00D+00 EMaxC= 1.00D-01 BMatC= 5.49D-05 BMatP= 1.92D-04
 IDIUse=3 WtCom= 9.97D-01 WtEn= 3.12D-03
 Coeff-Com:  0.125D-01-0.294D-01-0.613D-01-0.613D-01 0.329D+00 0.811D+00
 Coeff-En:   0.000D+00 0.000D+00 0.000D+00 0.000D+00 0.000D+00 0.100D+01
 Coeff:      0.124D-01-0.293D-01-0.611D-01-0.612D-01 0.328D+00 0.811D+00
 Gap=     0.240 Goal=   None    Shift=    0.000
 RMSDP=1.42D-04 MaxDP=6.35D-03 DE=-4.84D-04 OVMax= 1.04D-02

 Cycle   7  Pass 0  IDiag  1:
 RMSU=  6.80D-05    CP:  9.43D-01  1.05D+00  9.45D-01  8.97D-01  1.45D+00
                    CP:  1.13D+00
 E= -1490.82496048580     Delta-E=       -0.000193968890 Rises=F Damp=F
 DIIS: error= 2.46D-04 at cycle   7 NSaved=   7.
 NSaved= 7 IEnMin= 7 EnMin= -1490.82496048580     IErMin= 7 ErrMin= 2.46D-04
 ErrMax= 2.46D-04  0.00D+00 EMaxC= 1.00D-01 BMatC= 1.13D-05 BMatP= 5.49D-05
 IDIUse=3 WtCom= 9.98D-01 WtEn= 2.46D-03
 Coeff-Com:  0.504D-02-0.916D-02-0.358D-01-0.657D-01-0.597D-01 0.322D+00
 Coeff-Com:  0.843D+00
 Coeff-En:   0.000D+00 0.000D+00 0.000D+00 0.000D+00 0.000D+00 0.000D+00
 Coeff-En:   0.100D+01
 Coeff:      0.503D-02-0.914D-02-0.357D-01-0.655D-01-0.596D-01 0.321D+00
 Coeff:      0.844D+00
 Gap=     0.241 Goal=   None    Shift=    0.000
 RMSDP=6.98D-05 MaxDP=1.76D-03 DE=-1.94D-04 OVMax= 8.39D-03

 Cycle   8  Pass 0  IDiag  1:
 RMSU=  2.58D-05    CP:  9.43D-01  1.05D+00  9.50D-01  9.11D-01  1.60D+00
                    CP:  1.49D+00  1.14D+00
 E= -1490.82501973521     Delta-E=       -0.000059249411 Rises=F Damp=F
 DIIS: error= 8.09D-05 at cycle   8 NSaved=   8.
 NSaved= 8 IEnMin= 8 EnMin= -1490.82501973521     IErMin= 8 ErrMin= 8.09D-05
 ErrMax= 8.09D-05  0.00D+00 EMaxC= 1.00D-01 BMatC= 2.75D-06 BMatP= 1.13D-05
 IDIUse=1 WtCom= 1.00D+00 WtEn= 0.00D+00
 Coeff-Com: -0.243D-02 0.577D-02 0.831D-02 0.687D-02-0.786D-01-0.149D+00
 Coeff-Com:  0.222D+00 0.987D+00
 Coeff:     -0.243D-02 0.577D-02 0.831D-02 0.687D-02-0.786D-01-0.149D+00
 Coeff:      0.222D+00 0.987D+00
 Gap=     0.241 Goal=   None    Shift=    0.000
 RMSDP=3.77D-05 MaxDP=8.82D-04 DE=-5.92D-05 OVMax= 4.18D-03

 Cycle   9  Pass 0  IDiag  1:
 RMSU=  1.17D-05    CP:  9.43D-01  1.05D+00  9.50D-01  9.20D-01  1.67D+00
                    CP:  1.64D+00  1.43D+00  1.34D+00
 E= -1490.82503322713     Delta-E=       -0.000013491920 Rises=F Damp=F
 DIIS: error= 4.18D-05 at cycle   9 NSaved=   9.
 NSaved= 9 IEnMin= 9 EnMin= -1490.82503322713     IErMin= 9 ErrMin= 4.18D-05
 ErrMax= 4.18D-05  0.00D+00 EMaxC= 1.00D-01 BMatC= 4.85D-07 BMatP= 2.75D-06
 IDIUse=1 WtCom= 1.00D+00 WtEn= 0.00D+00
 Coeff-Com: -0.204D-02 0.418D-02 0.105D-01 0.179D-01-0.185D-01-0.135D+00
 Coeff-Com: -0.722D-01 0.339D+00 0.856D+00
 Coeff:     -0.204D-02 0.418D-02 0.105D-01 0.179D-01-0.185D-01-0.135D+00
 Coeff:     -0.722D-01 0.339D+00 0.856D+00
 Gap=     0.241 Goal=   None    Shift=    0.000
 RMSDP=1.63D-05 MaxDP=3.19D-04 DE=-1.35D-05 OVMax= 1.97D-03

 Cycle  10  Pass 0  IDiag  1:
 RMSU=  4.79D-06    CP:  9.43D-01  1.05D+00  9.50D-01  9.23D-01  1.70D+00
                    CP:  1.70D+00  1.55D+00  1.58D+00  1.25D+00
 E= -1490.82503522273     Delta-E=       -0.000001995599 Rises=F Damp=F
 DIIS: error= 1.19D-05 at cycle  10 NSaved=  10.
 NSaved=10 IEnMin=10 EnMin= -1490.82503522273     IErMin=10 ErrMin= 1.19D-05
 ErrMax= 1.19D-05  0.00D+00 EMaxC= 1.00D-01 BMatC= 8.09D-08 BMatP= 4.85D-07
 IDIUse=1 WtCom= 1.00D+00 WtEn= 0.00D+00
 Coeff-Com: -0.232D-03 0.377D-03 0.164D-02 0.474D-02 0.524D-02-0.232D-01
 Coeff-Com: -0.487D-01-0.567D-01 0.277D+00 0.840D+00
 Coeff:     -0.232D-03 0.377D-03 0.164D-02 0.474D-02 0.524D-02-0.232D-01
 Coeff:     -0.487D-01-0.567D-01 0.277D+00 0.840D+00
 Gap=     0.241 Goal=   None    Shift=    0.000
 RMSDP=5.63D-06 MaxDP=1.27D-04 DE=-2.00D-06 OVMax= 7.02D-04

 Initial convergence to 1.0D-05 achieved.  Increase integral accuracy.
 Cycle  11  Pass 1  IDiag  1:
 E= -1490.82498553267     Delta-E=        0.000049690059 Rises=F Damp=F
 DIIS: error= 9.85D-05 at cycle   1 NSaved=   1.
 NSaved= 1 IEnMin= 1 EnMin= -1490.82498553267     IErMin= 1 ErrMin= 9.85D-05
 ErrMax= 9.85D-05  0.00D+00 EMaxC= 1.00D-01 BMatC= 1.20D-06 BMatP= 1.20D-06
 IDIUse=1 WtCom= 1.00D+00 WtEn= 0.00D+00
 Coeff-Com:  0.100D+01
 Coeff:      0.100D+01
 Gap=     0.241 Goal=   None    Shift=    0.000
 RMSDP=5.63D-06 MaxDP=1.27D-04 DE= 4.97D-05 OVMax= 1.97D-04

 Cycle  12  Pass 1  IDiag  1:
 RMSU=  9.24D-05    CP:  1.00D+00
 E= -1490.82498672098     Delta-E=       -0.000001188308 Rises=F Damp=F
 DIIS: error= 7.91D-06 at cycle   2 NSaved=   2.
 NSaved= 2 IEnMin= 2 EnMin= -1490.82498672098     IErMin= 2 ErrMin= 7.91D-06
 ErrMax= 7.91D-06  0.00D+00 EMaxC= 1.00D-01 BMatC= 5.20D-08 BMatP= 1.20D-06
 IDIUse=1 WtCom= 1.00D+00 WtEn= 0.00D+00
 Coeff-Com:  0.288D-02 0.997D+00
 Coeff:      0.288D-02 0.997D+00
 Gap=     0.241 Goal=   None    Shift=    0.000
 RMSDP=7.08D-06 MaxDP=2.94D-04 DE=-1.19D-06 OVMax= 1.09D-04

 Cycle  13  Pass 1  IDiag  1:
 RMSU=  3.33D-06    CP:  1.00D+00  1.07D+00
 E= -1490.82498673127     Delta-E=       -0.000000010289 Rises=F Damp=F
 DIIS: error= 1.12D-05 at cycle   3 NSaved=   3.
 NSaved= 3 IEnMin= 3 EnMin= -1490.82498673127     IErMin= 2 ErrMin= 7.91D-06
 ErrMax= 1.12D-05  0.00D+00 EMaxC= 1.00D-01 BMatC= 6.91D-08 BMatP= 5.20D-08
 IDIUse=1 WtCom= 1.00D+00 WtEn= 0.00D+00
 Coeff-Com: -0.402D-01 0.561D+00 0.480D+00
 Coeff:     -0.402D-01 0.561D+00 0.480D+00
 Gap=     0.241 Goal=   None    Shift=    0.000
 RMSDP=1.43D-06 MaxDP=4.61D-05 DE=-1.03D-08 OVMax= 4.81D-05

 Cycle  14  Pass 1  IDiag  1:
 RMSU=  1.22D-06    CP:  1.00D+00  1.07D+00  8.51D-01
 E= -1490.82498678885     Delta-E=       -0.000000057586 Rises=F Damp=F
 DIIS: error= 1.33D-06 at cycle   4 NSaved=   4.
 NSaved= 4 IEnMin= 4 EnMin= -1490.82498678885     IErMin= 4 ErrMin= 1.33D-06
 ErrMax= 1.33D-06  0.00D+00 EMaxC= 1.00D-01 BMatC= 1.97D-09 BMatP= 5.20D-08
 IDIUse=1 WtCom= 1.00D+00 WtEn= 0.00D+00
 Coeff-Com: -0.149D-01 0.124D+00 0.167D+00 0.723D+00
 Coeff:     -0.149D-01 0.124D+00 0.167D+00 0.723D+00
 Gap=     0.241 Goal=   None    Shift=    0.000
 RMSDP=5.05D-07 MaxDP=1.77D-05 DE=-5.76D-08 OVMax= 3.25D-05

 Cycle  15  Pass 1  IDiag  1:
 RMSU=  4.08D-07    CP:  1.00D+00  1.08D+00  9.24D-01  1.08D+00
 E= -1490.82498679185     Delta-E=       -0.000000002998 Rises=F Damp=F
 DIIS: error= 8.57D-07 at cycle   5 NSaved=   5.
 NSaved= 5 IEnMin= 5 EnMin= -1490.82498679185     IErMin= 5 ErrMin= 8.57D-07
 ErrMax= 8.57D-07  0.00D+00 EMaxC= 1.00D-01 BMatC= 4.54D-10 BMatP= 1.97D-09
 IDIUse=1 WtCom= 1.00D+00 WtEn= 0.00D+00
 Coeff-Com:  0.125D-02-0.492D-01-0.328D-01 0.276D+00 0.805D+00
 Coeff:      0.125D-02-0.492D-01-0.328D-01 0.276D+00 0.805D+00
 Gap=     0.241 Goal=   None    Shift=    0.000
 RMSDP=2.86D-07 MaxDP=8.15D-06 DE=-3.00D-09 OVMax= 2.64D-05

 Cycle  16  Pass 1  IDiag  1:
 RMSU=  1.87D-07    CP:  1.00D+00  1.08D+00  9.59D-01  1.23D+00  1.06D+00
 E= -1490.82498679303     Delta-E=       -0.000000001180 Rises=F Damp=F
 DIIS: error= 4.29D-07 at cycle   6 NSaved=   6.
 NSaved= 6 IEnMin= 6 EnMin= -1490.82498679303     IErMin= 6 ErrMin= 4.29D-07
 ErrMax= 4.29D-07  0.00D+00 EMaxC= 1.00D-01 BMatC= 8.78D-11 BMatP= 4.54D-10
 IDIUse=1 WtCom= 1.00D+00 WtEn= 0.00D+00
 Coeff-Com:  0.298D-02-0.395D-01-0.448D-01 0.197D-02 0.313D+00 0.767D+00
 Coeff:      0.298D-02-0.395D-01-0.448D-01 0.197D-02 0.313D+00 0.767D+00
 Gap=     0.241 Goal=   None    Shift=    0.000
 RMSDP=1.43D-07 MaxDP=4.16D-06 DE=-1.18D-09 OVMax= 1.50D-05

 Cycle  17  Pass 1  IDiag  1:
 RMSU=  8.04D-08    CP:  1.00D+00  1.08D+00  9.75D-01  1.28D+00  1.20D+00
                    CP:  1.33D+00
 E= -1490.82498679340     Delta-E=       -0.000000000369 Rises=F Damp=F
 DIIS: error= 3.29D-07 at cycle   7 NSaved=   7.
 NSaved= 7 IEnMin= 7 EnMin= -1490.82498679340     IErMin= 7 ErrMin= 3.29D-07
 ErrMax= 3.29D-07  0.00D+00 EMaxC= 1.00D-01 BMatC= 1.80D-11 BMatP= 8.78D-11
 IDIUse=1 WtCom= 1.00D+00 WtEn= 0.00D+00
 Coeff-Com:  0.376D-03 0.364D-02-0.555D-02-0.636D-01-0.153D+00 0.121D+00
 Coeff-Com:  0.110D+01
 Coeff:      0.376D-03 0.364D-02-0.555D-02-0.636D-01-0.153D+00 0.121D+00
 Coeff:      0.110D+01
 Gap=     0.241 Goal=   None    Shift=    0.000
 RMSDP=1.15D-07 MaxDP=2.49D-06 DE=-3.69D-10 OVMax= 1.49D-05

 Cycle  18  Pass 1  IDiag  1:
 RMSU=  4.74D-08    CP:  1.00D+00  1.08D+00  9.80D-01  1.31D+00  1.31D+00
                    CP:  1.78D+00  1.30D+00
 E= -1490.82498679351     Delta-E=       -0.000000000112 Rises=F Damp=F
 DIIS: error= 1.02D-07 at cycle   8 NSaved=   8.
 NSaved= 8 IEnMin= 8 EnMin= -1490.82498679351     IErMin= 8 ErrMin= 1.02D-07
 ErrMax= 1.02D-07  0.00D+00 EMaxC= 1.00D-01 BMatC= 5.62D-12 BMatP= 1.80D-11
 IDIUse=1 WtCom= 1.00D+00 WtEn= 0.00D+00
 Coeff-Com: -0.528D-03 0.108D-01 0.732D-02-0.230D-01-0.134D+00-0.159D+00
 Coeff-Com:  0.456D+00 0.842D+00
 Coeff:     -0.528D-03 0.108D-01 0.732D-02-0.230D-01-0.134D+00-0.159D+00
 Coeff:      0.456D+00 0.842D+00
 Gap=     0.241 Goal=   None    Shift=    0.000
 RMSDP=5.46D-08 MaxDP=1.28D-06 DE=-1.12D-10 OVMax= 6.16D-06

 Cycle  19  Pass 1  IDiag  1:
 RMSU=  1.96D-08    CP:  1.00D+00  1.08D+00  9.81D-01  1.32D+00  1.34D+00
                    CP:  1.96D+00  1.67D+00  1.19D+00
 E= -1490.82498679355     Delta-E=       -0.000000000040 Rises=F Damp=F
 DIIS: error= 4.08D-08 at cycle   9 NSaved=   9.
 NSaved= 9 IEnMin= 9 EnMin= -1490.82498679355     IErMin= 9 ErrMin= 4.08D-08
 ErrMax= 4.08D-08  0.00D+00 EMaxC= 1.00D-01 BMatC= 1.04D-12 BMatP= 5.62D-12
 IDIUse=1 WtCom= 1.00D+00 WtEn= 0.00D+00
 Coeff-Com: -0.292D-03 0.390D-02 0.389D-02 0.456D-02-0.228D-01-0.974D-01
 Coeff-Com: -0.781D-02 0.358D+00 0.758D+00
 Coeff:     -0.292D-03 0.390D-02 0.389D-02 0.456D-02-0.228D-01-0.974D-01
 Coeff:     -0.781D-02 0.358D+00 0.758D+00
 Gap=     0.241 Goal=   None    Shift=    0.000
 RMSDP=1.77D-08 MaxDP=3.36D-07 DE=-4.05D-11 OVMax= 1.95D-06

 Cycle  20  Pass 1  IDiag  1:
 RMSU=  6.92D-09    CP:  1.00D+00  1.08D+00  9.81D-01  1.32D+00  1.35D+00
                    CP:  2.01D+00  1.76D+00  1.41D+00  1.13D+00
 E= -1490.82498679353     Delta-E=        0.000000000025 Rises=F Damp=F
 DIIS: error= 2.06D-08 at cycle  10 NSaved=  10.
 NSaved=10 IEnMin= 9 EnMin= -1490.82498679355     IErMin=10 ErrMin= 2.06D-08
 ErrMax= 2.06D-08  0.00D+00 EMaxC= 1.00D-01 BMatC= 1.70D-13 BMatP= 1.04D-12
 IDIUse=1 WtCom= 1.00D+00 WtEn= 0.00D+00
 Coeff-Com:  0.231D-04-0.110D-02-0.568D-03 0.651D-02 0.219D-01-0.201D-02
 Coeff-Com: -0.997D-01-0.643D-01 0.230D+00 0.909D+00
 Coeff:      0.231D-04-0.110D-02-0.568D-03 0.651D-02 0.219D-01-0.201D-02
 Coeff:     -0.997D-01-0.643D-01 0.230D+00 0.909D+00
 Gap=     0.241 Goal=   None    Shift=    0.000
 RMSDP=9.11D-09 MaxDP=2.04D-07 DE= 2.50D-11 OVMax= 8.28D-07

 SCF Done:  E(RwB97XD) =  -1490.82498679     A.U. after   20 cycles
            NFock= 20  Conv=0.91D-08     -V/T= 2.0046
 KE= 1.483999835820D+03 PE=-6.299389930920D+03 EE= 1.930110278263D+03
 Leave Link  502 at Fri Mar  6 16:25:48 2026, MaxMem=  2415919104 cpu:             277.2 elap:              26.8
 (Enter /prod/precompiled/gaussian/16c2/g16/l508.exe)
 QCSCF skips out because SCF is already converged.
 Leave Link  508 at Fri Mar  6 16:25:48 2026, MaxMem=  2415919104 cpu:               0.1 elap:               0.0
 (Enter /prod/precompiled/gaussian/16c2/g16/l801.exe)
 DoSCS=F DFT=T ScalE2(SS,OS)=  1.000000  1.000000
 Range of M.O.s used for correlation:     1   272
 NBasis=   272 NAE=    64 NBE=    64 NFC=     0 NFV=     0
 NROrb=    272 NOA=    64 NOB=    64 NVA=   208 NVB=   208

 **** Warning!!: The largest alpha MO coefficient is  0.14820135D+02

 Leave Link  801 at Fri Mar  6 16:25:48 2026, MaxMem=  2415919104 cpu:               0.1 elap:               0.1
 (Enter /prod/precompiled/gaussian/16c2/g16/l1101.exe)
 Using compressed storage, NAtomX=    24.
 Will process     25 centers per pass.
   1 Symmetry operations used in ECPInt.
 ECPInt:  NShTT=    7750 NPrTT=   30142 LenC2=    7515 LenP2D=   21238.
 LDataN:  DoStor=T MaxTD1= 5 Len=  102
 R6Disp: Adding Grimme-D2 dispersion energy 1st derivatives to the gradient.
 Leave Link 1101 at Fri Mar  6 16:25:48 2026, MaxMem=  2415919104 cpu:               1.6 elap:               0.3
 (Enter /prod/precompiled/gaussian/16c2/g16/l1102.exe)
 Symmetrizing basis deriv contribution to polar:
 IMax=3 JMax=2 DiffMx= 0.00D+00
 Leave Link 1102 at Fri Mar  6 16:25:48 2026, MaxMem=  2415919104 cpu:               0.2 elap:               0.1
 (Enter /prod/precompiled/gaussian/16c2/g16/l1110.exe)
 Forming Gx(P) for the SCF density, NAtomX=    24.
 Integral derivatives from FoFJK, PRISM(SPDF).
 Do as many integral derivatives as possible in FoFJK.
 G2DrvN: MDV=    2415916544.
 G2DrvN: will do    25 centers at a time, making    1 passes.
 Calling FoFCou, ICntrl=  3107 FMM=F I1Cent=   0 AccDes= 0.00D+00.
 FoFJK:  IHMeth= 1 ICntrl=    3107 DoSepK=T KAlg= 0 I1Cent=           0 FoldK=F
 IRaf=         1 NMat=       1 IRICut=       1 DoRegI=T DoRafI=F ISym2E= 0 IDoP0=0 IntGTp=1.
 FoFCou: FMM=F IPFlag=           0 FMFlag=      100000 FMFlg1=           0
         NFxFlg=           0 DoJE=F BraDBF=F KetDBF=F FulRan=T
         wScrn=  0.000000 ICntrl=      3507 IOpCl=  0 I1Cent=           0 NGrid=           0
         NMat0=    1 NMatS0=      1 NMatT0=    0 NMatD0=    1 NMtDS0=    0 NMtDT0=    0
 Symmetry not used in FoFCou.
 End of G2Drv F.D. properties file   721 does not exist.
 End of G2Drv F.D. properties file   722 does not exist.
 End of G2Drv F.D. properties file   788 does not exist.
 Leave Link 1110 at Fri Mar  6 16:26:14 2026, MaxMem=  2415919104 cpu:             300.3 elap:              25.9
 (Enter /prod/precompiled/gaussian/16c2/g16/l1002.exe)
 Minotr:  Closed shell wavefunction.
          IDoAtm=111111111111111111111111
          Direct CPHF calculation.
          Differentiating once with respect to electric field.
                with respect to dipole field.
          Differentiating once with respect to nuclear coordinates.
          Requested convergence is 1.0D-08 RMS, and 1.0D-07 maximum.
          Secondary convergence is 1.0D-12 RMS, and 1.0D-12 maximum.
          NewPWx=T KeepS1=F KeepF1=F KeepIn=T MapXYZ=F SortEE=F KeepMc=T.
         7174 words used for storage of precomputed grid.
 Keep R1 ints in memory in canonical form, NReq=1402150864.
 FoFCou: FMM=F IPFlag=           0 FMFlag=           0 FMFlg1=           0
         NFxFlg=           0 DoJE=F BraDBF=F KetDBF=F FulRan=T
         wScrn=  0.000000 ICntrl=       600 IOpCl=  0 I1Cent=           0 NGrid=           0
         NMat0=    1 NMatS0=  37128 NMatT0=    0 NMatD0=    1 NMtDS0=    0 NMtDT0=    0
 Symmetry not used in FoFCou.
 Two-electron integral symmetry not used.
          MDV=    2415919104 using IRadAn=       1.
          Solving linear equations simultaneously, MaxMat=       0.
          There are    75 degrees of freedom in the 1st order CPHF.  IDoFFX=6 NUNeed=     3.
     72 vectors produced by pass  0 Test12= 1.77D-14 1.33D-09 XBig12= 1.42D+02 5.50D+00.
 AX will form    72 AO Fock derivatives at one time.
     72 vectors produced by pass  1 Test12= 1.77D-14 1.33D-09 XBig12= 1.99D+01 5.33D-01.
     72 vectors produced by pass  2 Test12= 1.77D-14 1.33D-09 XBig12= 8.28D-01 1.38D-01.
     72 vectors produced by pass  3 Test12= 1.77D-14 1.33D-09 XBig12= 1.44D-02 1.30D-02.
     72 vectors produced by pass  4 Test12= 1.77D-14 1.33D-09 XBig12= 1.64D-04 1.36D-03.
     72 vectors produced by pass  5 Test12= 1.77D-14 1.33D-09 XBig12= 1.21D-06 1.27D-04.
     71 vectors produced by pass  6 Test12= 1.77D-14 1.33D-09 XBig12= 8.12D-09 9.38D-06.
     44 vectors produced by pass  7 Test12= 1.77D-14 1.33D-09 XBig12= 4.83D-11 6.32D-07.
      3 vectors produced by pass  8 Test12= 1.77D-14 1.33D-09 XBig12= 2.65D-13 4.70D-08.
      3 vectors produced by pass  9 Test12= 1.77D-14 1.33D-09 XBig12= 1.34D-15 3.41D-09.
 InvSVY:  IOpt=1 It=  1 EMax= 1.78D-15
 Solved reduced A of dimension   553 with    75 vectors.
 FullF1:  Do perturbations      1 to       3.
 Isotropic polarizability for W=    0.000000      158.31 Bohr**3.
 End of Minotr F.D. properties file   721 does not exist.
 End of Minotr F.D. properties file   722 does not exist.
 End of Minotr F.D. properties file   788 does not exist.
 Leave Link 1002 at Fri Mar  6 16:26:58 2026, MaxMem=  2415919104 cpu:             451.2 elap:              43.7
 (Enter /prod/precompiled/gaussian/16c2/g16/l601.exe)
 Copying SCF densities to generalized density rwf, IOpCl= 0 IROHF=0.

 **********************************************************************

            Population analysis using the SCF Density.

 **********************************************************************

 Alpha  occ. eigenvalues -- -101.69082-101.68522 -14.50040 -14.49839 -10.37552
 Alpha  occ. eigenvalues --  -10.37186 -10.35988 -10.35479 -10.33228 -10.32628
 Alpha  occ. eigenvalues --  -10.32305 -10.32302 -10.32244 -10.31750 -10.31689
 Alpha  occ. eigenvalues --  -10.31486  -9.60077  -9.59534  -7.35398  -7.34866
 Alpha  occ. eigenvalues --   -7.34488  -7.34427  -7.33935  -7.33880  -1.16305
 Alpha  occ. eigenvalues --   -1.03167  -0.99287  -0.98527  -0.93181  -0.89692
 Alpha  occ. eigenvalues --   -0.87115  -0.84098  -0.83376  -0.78373  -0.73534
 Alpha  occ. eigenvalues --   -0.72841  -0.71247  -0.66405  -0.65093  -0.60633
 Alpha  occ. eigenvalues --   -0.59956  -0.59518  -0.58378  -0.56014  -0.55805
 Alpha  occ. eigenvalues --   -0.54356  -0.53264  -0.52630  -0.51759  -0.48175
 Alpha  occ. eigenvalues --   -0.47690  -0.47185  -0.46870  -0.45255  -0.44732
 Alpha  occ. eigenvalues --   -0.43245  -0.43080  -0.42164  -0.39806  -0.35283
 Alpha  occ. eigenvalues --   -0.33299  -0.30681  -0.29793  -0.28306
 Alpha virt. eigenvalues --   -0.04203   0.02109   0.04933   0.06295   0.07512
 Alpha virt. eigenvalues --    0.10092   0.11573   0.15206   0.16115   0.17734
 Alpha virt. eigenvalues --    0.18050   0.19985   0.20522   0.21833   0.22113
 Alpha virt. eigenvalues --    0.22581   0.22911   0.27674   0.31604   0.32500
 Alpha virt. eigenvalues --    0.34291   0.34513   0.35002   0.35689   0.36448
 Alpha virt. eigenvalues --    0.37979   0.38041   0.39780   0.43164   0.45971
 Alpha virt. eigenvalues --    0.47160   0.47557   0.48308   0.48649   0.50059
 Alpha virt. eigenvalues --    0.50458   0.53139   0.53484   0.53926   0.54598
 Alpha virt. eigenvalues --    0.55180   0.55996   0.57954   0.58035   0.58683
 Alpha virt. eigenvalues --    0.59379   0.61636   0.62654   0.64249   0.64964
 Alpha virt. eigenvalues --    0.66446   0.67827   0.68117   0.69048   0.69836
 Alpha virt. eigenvalues --    0.70824   0.71056   0.72608   0.73041   0.73211
 Alpha virt. eigenvalues --    0.73952   0.74209   0.74386   0.75034   0.76333
 Alpha virt. eigenvalues --    0.76949   0.77380   0.78421   0.79304   0.79428
 Alpha virt. eigenvalues --    0.80037   0.81421   0.82167   0.83254   0.83816
 Alpha virt. eigenvalues --    0.85476   0.86482   0.87305   0.88341   0.88763
 Alpha virt. eigenvalues --    0.91127   0.91383   0.92472   0.95046   0.96606
 Alpha virt. eigenvalues --    0.97632   0.98428   1.01063   1.03723   1.04933
 Alpha virt. eigenvalues --    1.07091   1.08482   1.08794   1.11996   1.14774
 Alpha virt. eigenvalues --    1.16103   1.17256   1.19001   1.20574   1.22432
 Alpha virt. eigenvalues --    1.25901   1.27214   1.27535   1.30197   1.30864
 Alpha virt. eigenvalues --    1.32523   1.33233   1.34714   1.35555   1.36009
 Alpha virt. eigenvalues --    1.37810   1.39027   1.41904   1.42920   1.45775
 Alpha virt. eigenvalues --    1.46721   1.48990   1.51274   1.54439   1.56079
 Alpha virt. eigenvalues --    1.56755   1.59547   1.61523   1.63791   1.66532
 Alpha virt. eigenvalues --    1.70848   1.75419   1.77358   1.78392   1.80096
 Alpha virt. eigenvalues --    1.80428   1.81607   1.82479   1.83210   1.84478
 Alpha virt. eigenvalues --    1.84639   1.86091   1.86282   1.87402   1.87909
 Alpha virt. eigenvalues --    1.89571   1.92103   1.93629   1.94796   1.96773
 Alpha virt. eigenvalues --    2.00684   2.01294   2.02362   2.03582   2.03742
 Alpha virt. eigenvalues --    2.04158   2.05018   2.07439   2.10703   2.11925
 Alpha virt. eigenvalues --    2.13699   2.16550   2.18154   2.20240   2.22928
 Alpha virt. eigenvalues --    2.24062   2.24331   2.25480   2.29739   2.31119
 Alpha virt. eigenvalues --    2.32959   2.33666   2.34819   2.36227   2.37337
 Alpha virt. eigenvalues --    2.37988   2.38272   2.39585   2.42894   2.46954
 Alpha virt. eigenvalues --    2.50650   2.53480   2.53879   2.59509   2.62598
 Alpha virt. eigenvalues --    2.66028   2.67417   2.68424   2.69415   2.71175
 Alpha virt. eigenvalues --    2.71640   2.73479   2.77375   2.81397   2.82057
 Alpha virt. eigenvalues --    2.85260   2.87955   2.89429   2.91096   2.92387
 Alpha virt. eigenvalues --    2.98765   2.98985   3.05453   3.06315   3.12214
 Alpha virt. eigenvalues --    3.14000   3.18482   3.19627   3.27848   3.44702
 Alpha virt. eigenvalues --    3.52185   3.65247   3.69097
          Condensed to atoms (all electrons):
               1          2          3          4          5          6
     1  C    6.269077  -0.094214  -0.094710   0.104930  -0.173441   0.131814
     2  C   -0.094214   5.748284   0.274365   0.292942   0.111659  -0.165911
     3  Cl  -0.094710   0.274365  17.297609  -0.045510   0.002519   0.000539
     4  C    0.104930   0.292942  -0.045510   4.966934   0.298645   0.091607
     5  C   -0.173441   0.111659   0.002519   0.298645   5.110113   0.219104
     6  C    0.131814  -0.165911   0.000539   0.091607   0.219104   5.136993
     7  C    0.066752   0.087920   0.002696  -0.122045   0.112183   0.245540
     8  N    0.285636  -0.045746   0.001596   0.002548  -0.000404   0.007529
     9  N   -0.012076  -0.036631  -0.017371  -0.000645   0.000067  -0.000639
    10  C   -0.086397   0.002631  -0.136624  -0.006081   0.000047   0.000434
    11  C    0.026637  -0.156233  -0.095326   0.005368   0.000905   0.002485
    12  Cl  -0.129159  -0.112729   0.002686   0.018900  -0.002689   0.003098
    13  C   -0.011203   0.001388   0.018050   0.001012   0.000010  -0.000131
    14  C   -0.000026   0.002128  -0.000029   0.000074  -0.000046  -0.000003
    15  C    0.001010   0.004344  -0.050570  -0.000218   0.000002  -0.000002
    16  C   -0.001838  -0.008715  -0.136488   0.000982   0.000038   0.000033
    17  H    0.019661  -0.070489   0.001049   0.442845  -0.060669   0.013963
    18  H   -0.002097   0.015712  -0.000141  -0.063401   0.449966  -0.069370
    19  H    0.016052  -0.002178   0.000007   0.014012  -0.070060   0.456189
    20  H   -0.076388   0.021073  -0.000068  -0.003340   0.014420  -0.072384
    21  H    0.000663   0.000426  -0.000697   0.000155  -0.000033   0.000031
    22  H   -0.000002  -0.000026  -0.000196   0.000014  -0.000000   0.000000
    23  H    0.000004  -0.000047  -0.000301  -0.000004   0.000000  -0.000000
    24  H    0.000560  -0.000173  -0.000826   0.000032  -0.000000   0.000000
               7          8          9         10         11         12
     1  C    0.066752   0.285636  -0.012076  -0.086397   0.026637  -0.129159
     2  C    0.087920  -0.045746  -0.036631   0.002631  -0.156233  -0.112729
     3  Cl   0.002696   0.001596  -0.017371  -0.136624  -0.095326   0.002686
     4  C   -0.122045   0.002548  -0.000645  -0.006081   0.005368   0.018900
     5  C    0.112183  -0.000404   0.000067   0.000047   0.000905  -0.002689
     6  C    0.245540   0.007529  -0.000639   0.000434   0.002485   0.003098
     7  C    5.385861  -0.069123   0.016807   0.002530  -0.007766  -0.169188
     8  N   -0.069123   6.678407   0.248487  -0.005492  -0.041847  -0.041131
     9  N    0.016807   0.248487   6.622126   0.353644  -0.068703   0.001133
    10  C    0.002530  -0.005492   0.353644   5.998072  -0.056736  -0.098918
    11  C   -0.007766  -0.041847  -0.068703  -0.056736   5.836603   0.278976
    12  Cl  -0.169188  -0.041131   0.001133  -0.098918   0.278976  17.275516
    13  C    0.001039   0.000025   0.005857   0.102179   0.252404  -0.041728
    14  C    0.000033   0.000045  -0.000800  -0.169354   0.121447   0.002510
    15  C    0.000039  -0.000677   0.009063   0.129515  -0.167925   0.000587
    16  C   -0.000938   0.015092  -0.077424   0.105959   0.082749   0.002958
    17  H   -0.002466  -0.000075   0.000026   0.000465   0.000679  -0.000368
    18  H    0.013538   0.000006   0.000000  -0.000002  -0.000034  -0.000088
    19  H   -0.070244  -0.000081   0.000003   0.000005  -0.000019  -0.000271
    20  H    0.464738  -0.001528  -0.000002   0.000338   0.000144   0.000498
    21  H   -0.000091   0.000050  -0.000108   0.018594  -0.067382   0.000136
    22  H   -0.000000   0.000000   0.000004  -0.002054   0.015315  -0.000117
    23  H   -0.000000   0.000004  -0.000083   0.015979  -0.002172   0.000007
    24  H   -0.000015  -0.000135  -0.001176  -0.076705   0.021907  -0.000087
              13         14         15         16         17         18
     1  C   -0.011203  -0.000026   0.001010  -0.001838   0.019661  -0.002097
     2  C    0.001388   0.002128   0.004344  -0.008715  -0.070489   0.015712
     3  Cl   0.018050  -0.000029  -0.050570  -0.136488   0.001049  -0.000141
     4  C    0.001012   0.000074  -0.000218   0.000982   0.442845  -0.063401
     5  C    0.000010  -0.000046   0.000002   0.000038  -0.060669   0.449966
     6  C   -0.000131  -0.000003  -0.000002   0.000033   0.013963  -0.069370
     7  C    0.001039   0.000033   0.000039  -0.000938  -0.002466   0.013538
     8  N    0.000025   0.000045  -0.000677   0.015092  -0.000075   0.000006
     9  N    0.005857  -0.000800   0.009063  -0.077424   0.000026   0.000000
    10  C    0.102179  -0.169354   0.129515   0.105959   0.000465  -0.000002
    11  C    0.252404   0.121447  -0.167925   0.082749   0.000679  -0.000034
    12  Cl  -0.041728   0.002510   0.000587   0.002958  -0.000368  -0.000088
    13  C    5.003127   0.291127   0.092629  -0.118520  -0.000232   0.000014
    14  C    0.291127   5.097138   0.219660   0.107705   0.000006   0.000000
    15  C    0.092629   0.219660   5.191405   0.240296   0.000021  -0.000000
    16  C   -0.118520   0.107705   0.240296   5.373414  -0.000057  -0.000000
    17  H   -0.000232   0.000006   0.000021  -0.000057   0.648459  -0.011929
    18  H    0.000014   0.000000  -0.000000  -0.000000  -0.011929   0.652077
    19  H   -0.000002   0.000000   0.000000  -0.000000  -0.000221  -0.011096
    20  H    0.000018  -0.000000   0.000000  -0.000012   0.000015  -0.000195
    21  H    0.442639  -0.060545   0.013276  -0.002042  -0.000005  -0.000001
    22  H   -0.062428   0.449364  -0.067897   0.013395   0.000003  -0.000000
    23  H    0.013626  -0.068607   0.459858  -0.072297   0.000001  -0.000000
    24  H   -0.003745   0.014660  -0.075831   0.469962  -0.000002   0.000000
              19         20         21         22         23         24
     1  C    0.016052  -0.076388   0.000663  -0.000002   0.000004   0.000560
     2  C   -0.002178   0.021073   0.000426  -0.000026  -0.000047  -0.000173
     3  Cl   0.000007  -0.000068  -0.000697  -0.000196  -0.000301  -0.000826
     4  C    0.014012  -0.003340   0.000155   0.000014  -0.000004   0.000032
     5  C   -0.070060   0.014420  -0.000033  -0.000000   0.000000  -0.000000
     6  C    0.456189  -0.072384   0.000031   0.000000  -0.000000   0.000000
     7  C   -0.070244   0.464738  -0.000091  -0.000000  -0.000000  -0.000015
     8  N   -0.000081  -0.001528   0.000050   0.000000   0.000004  -0.000135
     9  N    0.000003  -0.000002  -0.000108   0.000004  -0.000083  -0.001176
    10  C    0.000005   0.000338   0.018594  -0.002054   0.015979  -0.076705
    11  C   -0.000019   0.000144  -0.067382   0.015315  -0.002172   0.021907
    12  Cl  -0.000271   0.000498   0.000136  -0.000117   0.000007  -0.000087
    13  C   -0.000002   0.000018   0.442639  -0.062428   0.013626  -0.003745
    14  C    0.000000  -0.000000  -0.060545   0.449364  -0.068607   0.014660
    15  C    0.000000   0.000000   0.013276  -0.067897   0.459858  -0.075831
    16  C   -0.000000  -0.000012  -0.002042   0.013395  -0.072297   0.469962
    17  H   -0.000221   0.000015  -0.000005   0.000003   0.000001  -0.000002
    18  H   -0.011096  -0.000195  -0.000001  -0.000000  -0.000000   0.000000
    19  H    0.653536  -0.010933   0.000001  -0.000000   0.000000  -0.000000
    20  H   -0.010933   0.629127  -0.000002   0.000000  -0.000000  -0.000001
    21  H    0.000001  -0.000002   0.645900  -0.011586  -0.000203   0.000021
    22  H   -0.000000   0.000000  -0.011586   0.646104  -0.010996  -0.000182
    23  H    0.000000  -0.000000  -0.000203  -0.010996   0.647267  -0.010757
    24  H   -0.000000  -0.000001   0.000021  -0.000182  -0.010757   0.620108
 Mulliken charges:
               1
     1  C   -0.241243
     2  C    0.130219
     3  Cl  -0.022259
     4  C    0.000246
     5  C   -0.012337
     6  C   -0.000920
     7  C    0.042201
     8  N   -0.033186
     9  N   -0.041558
    10  C   -0.092025
    11  C    0.018524
    12  Cl   0.009468
    13  C    0.012845
    14  C   -0.006486
    15  C    0.001415
    16  C    0.005751
    17  H    0.019321
    18  H    0.027039
    19  H    0.025302
    20  H    0.034484
    21  H    0.020805
    22  H    0.031288
    23  H    0.028722
    24  H    0.042383
 Sum of Mulliken charges =  -0.00000
 Mulliken charges with hydrogens summed into heavy atoms:
               1
     1  C   -0.241243
     2  C    0.130219
     3  Cl  -0.022259
     4  C    0.019567
     5  C    0.014702
     6  C    0.024382
     7  C    0.076685
     8  N   -0.033186
     9  N   -0.041558
    10  C   -0.092025
    11  C    0.018524
    12  Cl   0.009468
    13  C    0.033650
    14  C    0.024802
    15  C    0.030137
    16  C    0.048134
 APT charges:
               1
     1  C    0.090805
     2  C    0.174818
     3  Cl  -0.169913
     4  C   -0.124293
     5  C    0.008763
     6  C   -0.015250
     7  C   -0.068943
     8  N   -0.058858
     9  N   -0.089784
    10  C   -0.015010
    11  C    0.213923
    12  Cl  -0.218841
    13  C   -0.157309
    14  C    0.056741
    15  C   -0.059736
    16  C   -0.006271
    17  H    0.059070
    18  H    0.045521
    19  H    0.042209
    20  H    0.067144
    21  H    0.060634
    22  H    0.047119
    23  H    0.047098
    24  H    0.070364
 Sum of APT charges =  -0.00000
 APT charges with hydrogens summed into heavy atoms:
               1
     1  C    0.090805
     2  C    0.174818
     3  Cl  -0.169913
     4  C   -0.065223
     5  C    0.054284
     6  C    0.026959
     7  C   -0.001799
     8  N   -0.058858
     9  N   -0.089784
    10  C   -0.015010
    11  C    0.213923
    12  Cl  -0.218841
    13  C   -0.096675
    14  C    0.103860
    15  C   -0.012637
    16  C    0.064093
 Electronic spatial extent (au):  <R**2>=           4026.8746
 Charge=             -0.0000 electrons
 Dipole moment (field-independent basis, Debye):
    X=              3.3138    Y=              1.6364    Z=              1.0619  Tot=              3.8454
 Quadrupole moment (field-independent basis, Debye-Ang):
   XX=            -95.5157   YY=            -96.8091   ZZ=           -106.4874
   XY=             -5.9901   XZ=              3.9918   YZ=             -5.0997
 Traceless Quadrupole moment (field-independent basis, Debye-Ang):
   XX=              4.0884   YY=              2.7950   ZZ=             -6.8833
   XY=             -5.9901   XZ=              3.9918   YZ=             -5.0997
 Octapole moment (field-independent basis, Debye-Ang**2):
  XXX=           -381.0917  YYY=            203.3657  ZZZ=            -23.3458  XYY=           -120.9613
  XXY=             51.1388  XXZ=              1.0332  XZZ=           -147.9354  YZZ=             74.1491
  YYZ=             15.0325  XYZ=             -2.8552
 Hexadecapole moment (field-independent basis, Debye-Ang**3):
 XXXX=          -2129.2888 YYYY=          -2101.6857 ZZZZ=           -835.2128 XXXY=            507.2145
 XXXZ=            -51.1018 YYYX=            544.4799 YYYZ=            -56.7146 ZZZX=            -50.5767
 ZZZY=             20.9723 XXYY=           -717.7281 XXZZ=           -542.9668 YYZZ=           -504.6970
 XXYZ=            -24.6431 YYXZ=             40.6173 ZZXY=            218.1346
 N-N= 1.394454830044D+03 E-N=-6.299389925536D+03  KE= 1.483999835820D+03
  Exact polarizability:     156.037     -35.127     206.924      16.197      -7.952     111.977
 Approx polarizability:     207.678     -21.627     254.530      32.773     -24.397     154.372
 No NMR shielding tensors so no spin-rotation constants.
 Leave Link  601 at Fri Mar  6 16:26:58 2026, MaxMem=  2415919104 cpu:               1.2 elap:               0.2
 (Enter /prod/precompiled/gaussian/16c2/g16/l701.exe)
 ... and contract with generalized density number  0.
 Compute integral second derivatives.
 R6Disp: Adding Grimme-D2 dispersion energy 2nd derivatives to the Hessian.
   1 Symmetry operations used in ECPInt.
 ECPInt:  NShTT=    7750 NPrTT=   30142 LenC2=    7515 LenP2D=   21238.
 LDataN:  DoStor=T MaxTD1= 6 Len=  172
 Leave Link  701 at Fri Mar  6 16:26:59 2026, MaxMem=  2415919104 cpu:               1.8 elap:               0.4
 (Enter /prod/precompiled/gaussian/16c2/g16/l702.exe)
 L702 exits ... SP integral derivatives will be done elsewhere.
 Leave Link  702 at Fri Mar  6 16:26:59 2026, MaxMem=  2415919104 cpu:               0.1 elap:               0.1
 (Enter /prod/precompiled/gaussian/16c2/g16/l703.exe)
 Integral derivatives from FoFJK, PRISM(SPDF).
 Compute integral second derivatives, UseDBF=F ICtDFT=           0.
 Calling FoFJK, ICntrl=    100127 FMM=F ISym2X=0 I1Cent= 0 IOpClX= 0 NMat=1 NMatS=1 NMatT=0.
 FoFJK:  IHMeth= 1 ICntrl=  100127 DoSepK=T KAlg= 0 I1Cent=           0 FoldK=F
 IRaf=         1 NMat=       1 IRICut=       1 DoRegI=T DoRafI=F ISym2E= 0 IDoP0=0 IntGTp=1.
 FoFCou: FMM=F IPFlag=           0 FMFlag=      100000 FMFlg1=         800
         NFxFlg=           0 DoJE=F BraDBF=F KetDBF=F FulRan=T
         wScrn=  0.000000 ICntrl=    100527 IOpCl=  0 I1Cent=           0 NGrid=           0
         NMat0=    1 NMatS0=      1 NMatT0=    0 NMatD0=    1 NMtDS0=    0 NMtDT0=    0
 Symmetry not used in FoFCou.
 Leave Link  703 at Fri Mar  6 16:27:46 2026, MaxMem=  2415919104 cpu:             562.7 elap:              47.5
 (Enter /prod/precompiled/gaussian/16c2/g16/l716.exe)
 Dipole        = 1.30375852D+00 6.43824488D-01 4.17797889D-01
 Polarizability= 1.56037338D+02-3.51270117D+01 2.06924403D+02
                 1.61966452D+01-7.95165499D+00 1.11976688D+02
 -------------------------------------------------------------------
 Center     Atomic                   Forces (Hartrees/Bohr)
 Number     Number              X              Y              Z
 -------------------------------------------------------------------
      1        6          -0.046410101    0.011443756    0.032132986
      2        6          -0.017798195    0.016077587    0.034825197
      3       17          -0.023535157    0.068589705    0.107824027
      4        6          -0.004794666    0.005003201   -0.006812555
      5        6           0.006696616   -0.008180359    0.004122306
      6        6          -0.016659686   -0.015669470   -0.009084712
      7        6          -0.021545560    0.033122854    0.039457051
      8        7          -0.016659967    0.029484905    0.056712618
      9        7           0.032824139   -0.027248364   -0.046249457
     10        6          -0.009631449   -0.026250794   -0.033975417
     11        6           0.022146065   -0.014595484   -0.032601841
     12       17           0.086774795   -0.022556635   -0.092830600
     13        6           0.000656922   -0.008098706    0.003108100
     14        6          -0.003167225    0.007738763   -0.005795880
     15        6          -0.014336556   -0.012561989   -0.010702720
     16        6           0.031476524   -0.032014599   -0.036313978
     17        1           0.000763225   -0.003801089    0.001676163
     18        1           0.001049064    0.001827656    0.001572795
     19        1          -0.001634224    0.000705612   -0.002793432
     20        1          -0.000833385   -0.005866222   -0.001834859
     21        1          -0.001094985    0.003245900   -0.002829442
     22        1           0.002081646    0.000626323   -0.000603276
     23        1          -0.000641580   -0.002056591    0.001511392
     24        1          -0.005726258    0.001034037   -0.000514468
 -------------------------------------------------------------------
 Cartesian Forces:  Max     0.107824027 RMS     0.028565074
 Leave Link  716 at Fri Mar  6 16:27:46 2026, MaxMem=  2415919104 cpu:               0.1 elap:               0.1
 (Enter /prod/precompiled/gaussian/16c2/g16/l103.exe)

 GradGradGradGradGradGradGradGradGradGradGradGradGradGradGradGradGradGrad
 Berny optimization.
 Step   1 in ReCalcFC=30 IGetFC= 4 recover analytic Hessian.
 Search for a local minimum.
 Step number   1 out of a maximum of   82
 All quantities printed in internal units (Hartrees-Bohrs-Radians)
 Second derivative matrix not updated -- analytic derivatives used.
 ITU=  0
     Eigenvalues ---   -0.00383  -0.00044   0.00368   0.00640   0.01166
     Eigenvalues ---    0.01525   0.01692   0.02218   0.02453   0.02543
     Eigenvalues ---    0.03145   0.03617   0.03886   0.05078   0.05126
     Eigenvalues ---    0.05149   0.05262   0.05546   0.06311   0.07374
     Eigenvalues ---    0.07747   0.08681   0.09334   0.09587   0.10149
     Eigenvalues ---    0.10466   0.10915   0.13845   0.14442   0.16712
     Eigenvalues ---    0.17036   0.18234   0.18573   0.19220   0.19847
     Eigenvalues ---    0.20389   0.20644   0.24310   0.25690   0.27630
     Eigenvalues ---    0.28237   0.30248   0.33262   0.38824   0.39743
     Eigenvalues ---    0.43534   0.49761   0.53627   0.56442   0.63106
     Eigenvalues ---    0.64457   0.74517   0.79411   0.83397   0.85322
     Eigenvalues ---    0.86964   0.89454   1.09642   1.11248   1.12244
     Eigenvalues ---    1.13240   1.24996   1.26712   1.31703   1.32114
     Eigenvalues ---    1.44450
 Eigenvalue     1 is  -3.83D-03 should be greater than     0.000000 Eigenvector:
                          X3        Y22       X18       Z12       X12
   1                    0.41657  -0.27436  -0.26463   0.23434   0.23059
                          X19       Y14       X5        Y3        Y21
   1                   -0.22131  -0.21934  -0.20767   0.18969  -0.18195
 Eigenvalue     2 is  -4.39D-04 should be greater than     0.000000 Eigenvector:
                          Z18       Z12       X18       Z17       Y12
   1                    0.38099  -0.29703  -0.29394   0.27967  -0.26876
                          X20       Z5        X3        X17       X7
   1                    0.26058   0.20905   0.20119  -0.19693   0.18349
 RFO step:  Lambda=-1.44887417D-01 EMin=-3.83421745D-03
 Linear search not attempted -- first point.
 Maximum step size (   0.300) exceeded in Quadratic search.
    -- Step size scaled by   0.233
 B after Tr=    -0.007043   -0.004926   -0.003766
         Rot=    0.999999    0.000942   -0.000390    0.000238 Ang=   0.12 deg.
 Variable       Old X    -DE/DX   Delta X   Delta X   Delta X     New X
                                 (Linear)    (Quad)   (Total)
    X1        0.00000  -0.04641   0.00000  -0.00054  -0.00755  -0.00755
    Y1        0.00000   0.01144   0.00000   0.01536   0.01050   0.01050
    Z1        0.00000   0.03213   0.00000   0.03222   0.02843   0.02843
    X2        1.83000  -0.01780   0.00000  -0.00059  -0.00612   1.82388
    Y2       -0.06323   0.01608   0.00000   0.00137  -0.00071  -0.06394
    Z2        1.94737   0.03483   0.00000   0.02228   0.01720   1.96457
    X3        2.98992  -0.02354   0.00000  -0.09601  -0.10173   2.88819
    Y3       -2.80024   0.06859   0.00000  -0.00348  -0.00335  -2.80359
    Z3        3.33615   0.10782   0.00000   0.07948   0.07874   3.41489
    X4        2.85170  -0.00479   0.00000   0.01857   0.01486   2.86655
    Y4        2.18176   0.00500   0.00000  -0.01232  -0.01305   2.16870
    Z4        2.93508  -0.00681   0.00000   0.01947   0.00937   2.94445
    X5        2.08330   0.00670   0.00000   0.03232   0.02903   2.11233
    Y5        4.52824  -0.00818   0.00000  -0.01188  -0.01395   4.51429
    Z5        2.03355   0.00412   0.00000   0.02096   0.00703   2.04058
    X6        0.30347  -0.01666   0.00000   0.03922   0.03449   0.33796
    Y6        4.64771  -0.01567   0.00000   0.00202  -0.00285   4.64486
    Z6        0.11089  -0.00908   0.00000   0.01152  -0.00128   0.10961
    X7       -0.70913  -0.02155   0.00000   0.02849   0.02191  -0.68722
    Y7        2.41304   0.03312   0.00000   0.01614   0.00988   2.42291
    Z7       -0.89627   0.03946   0.00000   0.01652   0.00871  -0.88756
    X8       -1.25242  -0.01666   0.00000  -0.00833  -0.01721  -1.26963
    Y8       -2.08848   0.02948   0.00000   0.00692   0.00054  -2.08794
    Z8       -1.16131   0.05671   0.00000   0.06549   0.06663  -1.09469
    X9       -0.25911   0.03282   0.00000   0.01304   0.00343  -0.25567
    Y9       -4.16978  -0.02725   0.00000  -0.00570  -0.01190  -4.18168
    Z9       -0.69965  -0.04625   0.00000  -0.04327  -0.03897  -0.73862
   X10        2.40841  -0.00963   0.00000   0.01175   0.00216   2.41057
   Y10       -4.16978  -0.02625   0.00000  -0.01421  -0.02165  -4.19143
   Z10       -0.69965  -0.03398   0.00000  -0.02283  -0.02059  -0.72024
   X11        3.92139   0.02215   0.00000  -0.00510  -0.01453   3.90686
   Y11       -2.21790  -0.01460   0.00000  -0.00872  -0.01872  -2.23662
   Z11       -1.67310  -0.03260   0.00000  -0.03397  -0.03658  -1.70968
   X12        2.66011   0.08677   0.00000  -0.03131  -0.04077   2.61934
   Y12        0.41012  -0.02256   0.00000  -0.08372  -0.09612   0.31400
   Z12       -3.15752  -0.09283   0.00000  -0.14583  -0.15225  -3.30977
   X13        6.55818   0.00066   0.00000  -0.01317  -0.02237   6.53580
   Y13       -2.28086  -0.00810   0.00000   0.03426   0.02360  -2.25727
   Z13       -1.39148   0.00311   0.00000   0.00033  -0.00429  -1.39578
   X14        7.71994  -0.00317   0.00000  -0.00254  -0.01168   7.70826
   Y14       -4.27392   0.00774   0.00000   0.05227   0.04347  -4.23044
   Z14       -0.11815  -0.00580   0.00000   0.01441   0.01259  -0.10555
   X15        6.25338  -0.01434   0.00000   0.01595   0.00666   6.26004
   Y15       -6.19991  -0.01256   0.00000   0.02439   0.01816  -6.18174
   Z15        0.89873  -0.01070   0.00000  -0.00765  -0.00466   0.89407
   X16        3.62073   0.03148   0.00000   0.02460   0.01510   3.63583
   Y16       -6.13713  -0.03201   0.00000  -0.00757  -0.01311  -6.15023
   Z16        0.62065  -0.03631   0.00000  -0.02708  -0.02210   0.59855
   X17        4.25544   0.00076   0.00000   0.00239  -0.00019   4.25525
   Y17        2.09501  -0.00380   0.00000  -0.03106  -0.02960   2.06541
   Z17        4.43369   0.00168   0.00000   0.03374   0.02276   4.45645
   X18        2.87755   0.00105   0.00000   0.02550   0.02366   2.90121
   Y18        6.24594   0.00183   0.00000  -0.01621  -0.01711   6.22882
   Z18        2.83589   0.00157   0.00000   0.03882   0.02105   2.85693
   X19       -0.30338  -0.00163   0.00000   0.05349   0.04907  -0.25432
   Y19        6.47798   0.00071   0.00000   0.00636   0.00042   6.47839
   Z19       -0.60430  -0.00279   0.00000   0.00848  -0.00731  -0.61161
   X20       -2.09056  -0.00083   0.00000   0.04679   0.03909  -2.05147
   Y20        2.56455  -0.00587   0.00000   0.01438   0.00587   2.57041
   Z20       -2.41463  -0.00183   0.00000  -0.00321  -0.01024  -2.42486
   X21        7.70966  -0.00109   0.00000  -0.02897  -0.03802   7.67164
   Y21       -0.75319   0.00325   0.00000   0.04685   0.03423  -0.71895
   Z21       -2.13638  -0.00283   0.00000  -0.00018  -0.00859  -2.14497
   X22        9.76504   0.00208   0.00000  -0.00314  -0.01209   9.75295
   Y22       -4.30198   0.00063   0.00000   0.07742   0.06809  -4.23389
   Z22        0.10009  -0.00060   0.00000   0.03076   0.02735   0.12743
   X23        7.14675  -0.00064   0.00000   0.02660   0.01740   7.16415
   Y23       -7.73831  -0.00206   0.00000   0.03687   0.03218  -7.70613
   Z23        1.93033   0.00151   0.00000   0.00380   0.00895   1.93928
   X24        2.49381  -0.00573   0.00000   0.02493   0.01541   2.50922
   Y24       -7.62451   0.00103   0.00000  -0.00147  -0.00480  -7.62931
   Z24        1.48427  -0.00051   0.00000  -0.01056  -0.00192   1.48235
         Item               Value     Threshold  Converged?
 Maximum Force            0.107824     0.000450     NO 
 RMS     Force            0.028565     0.000300     NO 
 Maximum Displacement     0.152251     0.001800     NO 
 RMS     Displacement     0.034529     0.001200     NO 
 Predicted change in Energy=-3.343671D-02
 Lowest energy point so far.  Saving SCF results.
 Step   1 in ReCalcFC=30 IGetFC= 0 compute gradient.
 GradGradGradGradGradGradGradGradGradGradGradGradGradGradGradGradGradGrad

 Leave Link  103 at Fri Mar  6 16:27:47 2026, MaxMem=  2415919104 cpu:               0.3 elap:               0.2
 (Enter /prod/precompiled/gaussian/16c2/g16/l202.exe)
                          Input orientation:                          
 ---------------------------------------------------------------------
 Center     Atomic      Atomic             Coordinates (Angstroms)
 Number     Number       Type             X           Y           Z
 ---------------------------------------------------------------------
      1          6           0       -0.003995    0.005555    0.015043
      2          6           0        0.965156   -0.033837    1.039608
      3         17           0        1.528364   -1.483597    1.807081
      4          6           0        1.516915    1.147629    1.558137
      5          6           0        1.117798    2.388857    1.079827
      6          6           0        0.178840    2.457956    0.058002
      7          6           0       -0.363660    1.282150   -0.469678
      8          7           0       -0.671861   -1.104889   -0.579282
      9          7           0       -0.135296   -2.212850   -0.390862
     10          6           0        1.275618   -2.218007   -0.381136
     11          6           0        2.067420   -1.183568   -0.904725
     12         17           0        1.386095    0.166161   -1.751455
     13          6           0        3.458598   -1.194494   -0.738613
     14          6           0        4.079034   -2.238655   -0.055857
     15          6           0        3.312670   -3.271239    0.473121
     16          6           0        1.923999   -3.254562    0.316737
     17          1           0        2.251782    1.092968    2.358253
     18          1           0        1.535257    3.296150    1.511824
     19          1           0       -0.134579    3.428218   -0.323652
     20          1           0       -1.085593    1.360203   -1.283182
     21          1           0        4.059658   -0.380454   -1.135071
     22          1           0        5.161038   -2.240477    0.067435
     23          1           0        3.791105   -4.077907    1.026222
     24          1           0        1.327822   -4.037258    0.784426
 ---------------------------------------------------------------------
                    Distance matrix (angstroms):
                    1          2          3          4          5
     1  C    0.000000
     2  C    1.410864   0.000000
     3  Cl   2.788744   1.734365   0.000000
     4  C    2.449212   1.403272   2.643000   0.000000
     5  C    2.841182   2.427831   3.961485   1.388785   0.000000
     6  C    2.459582   2.791213   4.518443   2.399543   1.389440
     7  C    1.412094   2.403230   4.051264   2.768880   2.412568
     8  N    1.425606   2.539249   3.267895   3.799097   4.261665
     9  N    2.259053   2.829371   2.851408   4.221518   4.990880
    10  C    2.595880   2.624024   2.321967   3.891852   4.835548
    11  C    2.559443   2.513424   2.781095   3.435582   4.195528
    12  Cl   2.253588   2.829703   3.924935   3.454532   3.609504
    13  C    3.741345   3.275126   3.207793   3.811919   4.650427
    14  C    4.659681   3.969573   3.247548   4.542725   5.610042
    15  C    4.684813   4.038874   2.856372   4.891665   6.101003
    16  C    3.799545   3.437295   2.348184   4.591957   5.751560
    17  H    3.429523   2.159611   2.732363   1.087751   2.144673
    18  H    3.929080   3.411278   4.788863   2.149099   1.088151
    19  H    3.441859   3.879912   5.606365   3.386687   2.149063
    20  H    2.165714   3.397686   4.946685   3.858929   3.390704
    21  H    4.240877   3.798067   4.034926   4.006738   4.607537
    22  H    5.632493   4.839402   4.098239   5.194332   6.229243
    23  H    5.665679   4.933627   3.529898   5.723731   6.997748
    24  H    4.325508   4.027907   2.758121   5.245707   6.436329
                    6          7          8          9         10
     6  C    0.000000
     7  C    1.398310   0.000000
     8  N    3.718022   2.409347   0.000000
     9  N    4.702828   3.503340   1.245385   0.000000
    10  C    4.822903   3.866028   2.251881   1.410957   0.000000
    11  C    4.213583   3.489869   2.759668   2.485042   1.403980
    12  Cl   3.159735   2.439268   2.687888   3.134571   2.752133
    13  C    4.973108   4.562428   4.134502   3.751540   2.437370
    14  C    6.105951   5.683736   4.912271   4.227703   2.822300
    15  C    6.543461   5.927699   4.655868   3.708789   2.447168
    16  C    5.978745   5.141361   3.487469   2.413826   1.407789
    17  H    3.383997   3.856621   4.691202   4.917744   4.406779
    18  H    2.157785   3.404179   5.349135   6.063007   5.835807
    19  H    1.088715   2.163195   4.571988   5.641469   5.819950
    20  H    2.145373   1.090444   2.596792   3.803421   4.380935
    21  H    4.953861   4.772079   4.818815   4.637797   3.419927
    22  H    6.848187   6.574168   5.977501   5.316198   3.911293
    23  H    7.530167   6.944782   5.597727   4.572001   3.430387
    24  H    6.635937   5.721013   3.802265   2.617342   2.161234
                   11         12         13         14         15
    11  C    0.000000
    12  Cl   1.732895   0.000000
    13  C    1.401102   2.678152   0.000000
    14  C    2.424949   3.988748   1.393330   0.000000
    15  C    2.794185   4.525057   2.408830   1.390453   0.000000
    16  C    2.408642   4.033374   2.777163   2.411446   1.397548
    17  H    3.982917   4.300939   4.034781   4.501832   4.870883
    18  H    5.117693   4.524165   5.378624   6.289873   6.882492
    19  H    5.143444   3.871962   5.869632   7.066803   7.576351
    20  H    4.068844   2.784647   5.241441   6.413383   6.624165
    21  H    2.160339   2.797616   1.086791   2.148951   3.391299
    22  H    3.410663   4.832232   2.154553   1.089007   2.154882
    23  H    3.882891   5.613526   3.396950   2.153287   1.088823
    24  H    3.397614   4.909462   3.865380   3.392671   2.150190
                   16         17         18         19         20
    16  C    0.000000
    17  H    4.814171   0.000000
    18  H    6.670171   2.466549   0.000000
    19  H    7.021922   4.282607   2.484907   0.000000
    20  H    5.737024   4.946669   4.292878   2.470184   0.000000
    21  H    3.863843   4.200321   5.186142   5.723286   5.433730
    22  H    3.401315   4.982316   6.773979   7.767279   7.335494
    23  H    2.160405   5.557136   7.726667   8.577591   7.660847
    24  H    1.089391   5.445168   7.372315   7.687639   6.263558
                   21         22         23         24
    21  H    0.000000
    22  H    2.473610   0.000000
    23  H    4.291208   2.484379   0.000000
    24  H    4.951729   4.293722   2.475456   0.000000
 Symmetry turned off by external request.
 Stoichiometry    C12H8Cl2N2
 Framework group  C1[X(C12H8Cl2N2)]
 Deg. of freedom    66
 Full point group                 C1      NOp   1
 Rotational constants (GHZ):           0.8505302           0.4588353           0.4388494
 Leave Link  202 at Fri Mar  6 16:27:47 2026, MaxMem=  2415919104 cpu:               0.2 elap:               0.1
 (Enter /prod/precompiled/gaussian/16c2/g16/l301.exe)
 Standard basis: def2SVP (5D, 7F)
 Ernie: Thresh=  0.10000D-02 Tol=  0.10000D-05 Strict=F.
   272 basis functions,   480 primitive gaussians,   288 cartesian basis functions
    64 alpha electrons       64 beta electrons
       nuclear repulsion energy      1388.5450087696 Hartrees.
 IExCor= 4639 DFT=T Ex+Corr=wB97XD ExCW=0 ScaHFX=  1.000000
 ScaDFX=  1.000000  1.000000  1.000000  1.000000 ScalE2=  1.000000  1.000000
 IRadAn=      5 IRanWt=     -1 IRanGd=            0 ICorTp=0 IEmpDi=121
 HFx  wShort=  0.000000 wLong=  0.200000 cFull=  0.222036 cShort=  0.000000 cLong=  0.777964
 DFx  wShort=  0.000000 wLong=  0.200000 cFull=  0.000000 cShort=  0.000000 cLong=  1.000000
 NAtoms=   24 NActive=   24 NUniq=   24 SFac= 1.00D+00 NAtFMM=   60 NAOKFM=F Big=F
 Integral buffers will be    131072 words long.
 Raffenetti 2 integral format.
 Two-electron integral symmetry is turned off.
 R6Disp:  Grimme-D2 Dispersion energy=       -0.0180115650 Hartrees.
[...]
 Alpha  occ. eigenvalues --   -1.01106  -1.00179  -0.94869  -0.94674  -0.90320
 Alpha  occ. eigenvalues --   -0.86893  -0.84609  -0.84157  -0.78400  -0.73774
 Alpha  occ. eigenvalues --   -0.72155  -0.71155  -0.67499  -0.65314  -0.60097
 Alpha  occ. eigenvalues --   -0.59418  -0.59330  -0.58286  -0.54897  -0.54654
 Alpha  occ. eigenvalues --   -0.54353  -0.53086  -0.52987  -0.50176  -0.48863
 Alpha  occ. eigenvalues --   -0.47995  -0.47583  -0.47244  -0.45730  -0.44506
 Alpha  occ. eigenvalues --   -0.43081  -0.43054  -0.40571  -0.40252  -0.35982
 Alpha  occ. eigenvalues --   -0.35568  -0.34208  -0.33225  -0.30455
 Alpha virt. eigenvalues --   -0.00816   0.02997   0.04349   0.05076   0.05403
 Alpha virt. eigenvalues --    0.10521   0.11091   0.15684   0.15770   0.17768
 Alpha virt. eigenvalues --    0.18026   0.20564   0.21054   0.21098   0.21443
 Alpha virt. eigenvalues --    0.22074   0.22382   0.28470   0.31472   0.32914
 Alpha virt. eigenvalues --    0.34559   0.34743   0.35348   0.35391   0.36391
 Alpha virt. eigenvalues --    0.37540   0.38000   0.40017   0.41363   0.45099
 Alpha virt. eigenvalues --    0.46077   0.46928   0.47894   0.49081   0.49631
 Alpha virt. eigenvalues --    0.50933   0.51154   0.52265   0.53711   0.54452
 Alpha virt. eigenvalues --    0.54552   0.55657   0.55745   0.56927   0.57999
 Alpha virt. eigenvalues --    0.59875   0.60009   0.61706   0.62007   0.63638
 Alpha virt. eigenvalues --    0.64258   0.64970   0.65414   0.67083   0.68004
 Alpha virt. eigenvalues --    0.68511   0.70804   0.71486   0.72105   0.72790
 Alpha virt. eigenvalues --    0.72957   0.73868   0.74251   0.75759   0.76124
 Alpha virt. eigenvalues --    0.76946   0.78212   0.78782   0.78941   0.79576
 Alpha virt. eigenvalues --    0.80126   0.81556   0.81748   0.82675   0.83013
 Alpha virt. eigenvalues --    0.84777   0.85588   0.85813   0.87198   0.88239
 Alpha virt. eigenvalues --    0.88863   0.89391   0.89573   0.91540   0.92674
 Alpha virt. eigenvalues --    0.93243   0.93563   0.95349   0.95535   0.99064
 Alpha virt. eigenvalues --    0.99464   1.00627   1.01758   1.03517   1.09199
 Alpha virt. eigenvalues --    1.09295   1.11020   1.11094   1.14204   1.15483
 Alpha virt. eigenvalues --    1.18464   1.19463   1.21872   1.24954   1.26325
 Alpha virt. eigenvalues --    1.28054   1.28640   1.31603   1.32386   1.32934
 Alpha virt. eigenvalues --    1.33311   1.34604   1.35624   1.36147   1.36279
 Alpha virt. eigenvalues --    1.37399   1.39054   1.45335   1.46908   1.53446
 Alpha virt. eigenvalues --    1.53983   1.56621   1.59086   1.60145   1.67216
 Alpha virt. eigenvalues --    1.68380   1.73577   1.73899   1.76762   1.78215
 Alpha virt. eigenvalues --    1.78603   1.78646   1.80726   1.82165   1.82546
 Alpha virt. eigenvalues --    1.83282   1.84181   1.84772   1.84954   1.86121
 Alpha virt. eigenvalues --    1.87109   1.88888   1.90582   1.92172   1.95311
 Alpha virt. eigenvalues --    1.97620   1.98157   1.99323   2.00813   2.01890
 Alpha virt. eigenvalues --    2.02141   2.02523   2.07058   2.07809   2.08797
 Alpha virt. eigenvalues --    2.12432   2.13597   2.14375   2.20548   2.21457
 Alpha virt. eigenvalues --    2.22236   2.23649   2.24107   2.29527   2.30548
 Alpha virt. eigenvalues --    2.31763   2.31837   2.33611   2.35164   2.35506
 Alpha virt. eigenvalues --    2.36272   2.37428   2.38886   2.39687   2.41807
 Alpha virt. eigenvalues --    2.43220   2.47866   2.51677   2.56538   2.56885
 Alpha virt. eigenvalues --    2.66099   2.66253   2.67783   2.70434   2.70628
 Alpha virt. eigenvalues --    2.70833   2.74447   2.79199   2.79447   2.82252
 Alpha virt. eigenvalues --    2.85211   2.88563   2.89129   2.91320   2.92336
 Alpha virt. eigenvalues --    2.94041   2.95034   3.05195   3.05620   3.12678
 Alpha virt. eigenvalues --    3.13949   3.15932   3.23455   3.30169   3.42769
 Alpha virt. eigenvalues --    3.45906   3.65950   3.69276
          Condensed to atoms (all electrons):
               1          2          3          4          5          6
     1  C    5.271378   0.227059  -0.074872   0.079671  -0.143807   0.100023
     2  C    0.227059   5.237157   0.262553   0.347614   0.089150  -0.155055
     3  Cl  -0.074872   0.262553  16.907255  -0.052452   0.002711   0.000535
     4  C    0.079671   0.347614  -0.052452   4.987583   0.303338   0.082731
     5  C   -0.143807   0.089150   0.002711   0.303338   5.061697   0.287857
     6  C    0.100023  -0.155055   0.000535   0.082731   0.287857   5.065419
     7  C    0.330991   0.065390   0.001911  -0.112306   0.067973   0.297380
     8  N    0.318894  -0.083135   0.005315   0.004018   0.000027   0.006379
     9  N   -0.059296   0.003345  -0.000002  -0.000244  -0.000006   0.000050
    10  C   -0.000836  -0.001598  -0.000771  -0.000027  -0.000183  -0.000634
    11  C   -0.001632  -0.000947  -0.000006   0.000008   0.000022   0.000077
    12  Cl  -0.000773  -0.000006   0.000000  -0.000000   0.000000   0.000163
    13  C   -0.000026   0.000007  -0.000000   0.000006  -0.000012   0.000039
    14  C   -0.000184   0.000022   0.000000  -0.000012   0.000004  -0.000000
    15  C   -0.000628   0.000073   0.000160   0.000038  -0.000000  -0.000078
    16  C   -0.003783   0.000498  -0.004414   0.000194   0.000178  -0.000018
    17  H    0.016874  -0.065193   0.001515   0.441686  -0.059209   0.012171
    18  H   -0.001775   0.013957  -0.000103  -0.061860   0.446656  -0.064143
    19  H    0.014226  -0.001497   0.000008   0.012119  -0.065631   0.444593
    20  H   -0.076993   0.018814  -0.000066  -0.002898   0.013746  -0.061283
    21  H    0.000003  -0.000000  -0.000000   0.000000   0.000000  -0.000003
    22  H   -0.000002  -0.000000   0.000000   0.000000  -0.000000   0.000000
    23  H    0.000044   0.000018  -0.000013   0.000009  -0.000002   0.000004
    24  H   -0.004437  -0.005781   0.018598  -0.000501   0.000056   0.000062
               7          8          9         10         11         12
     1  C    0.330991   0.318894  -0.059296  -0.000836  -0.001632  -0.000773
     2  C    0.065390  -0.083135   0.003345  -0.001598  -0.000947  -0.000006
     3  Cl   0.001911   0.005315  -0.000002  -0.000771  -0.000006   0.000000
     4  C   -0.112306   0.004018  -0.000244  -0.000027   0.000008  -0.000000
     5  C    0.067973   0.000027  -0.000006  -0.000183   0.000022   0.000000
     6  C    0.297380   0.006379   0.000050  -0.000634   0.000077   0.000163
     7  C    5.010825  -0.051538  -0.014099  -0.003744   0.000506  -0.004512
     8  N   -0.051538   6.534518   0.404248  -0.059308   0.003317   0.000005
     9  N   -0.014099   0.404248   6.534702   0.318672  -0.083110   0.005306
    10  C   -0.003744  -0.059308   0.318672   5.271685   0.227195  -0.074978
    11  C    0.000506   0.003317  -0.083110   0.227195   5.237298   0.262618
    12  Cl  -0.004512   0.000005   0.005306  -0.074978   0.262618  16.907050
    13  C    0.000198  -0.000245   0.004023   0.079638   0.347483  -0.052415
    14  C    0.000179  -0.000006   0.000028  -0.143756   0.089104   0.002709
    15  C   -0.000019   0.000049   0.006383   0.099969  -0.155043   0.000535
    16  C    0.001416  -0.014053  -0.051561   0.331085   0.065430   0.001912
    17  H   -0.001824  -0.000081   0.000003   0.000003  -0.000000  -0.000000
    18  H    0.012740   0.000006   0.000000  -0.000002  -0.000000   0.000000
    19  H   -0.058480  -0.000100  -0.000001   0.000045   0.000018  -0.000013
    20  H    0.440576  -0.009450   0.003751  -0.004499  -0.005886   0.018866
    21  H   -0.000006   0.000003  -0.000081   0.016872  -0.065175   0.001511
    22  H   -0.000001   0.000000   0.000006  -0.001774   0.013957  -0.000103
    23  H   -0.000027  -0.000001  -0.000100   0.014223  -0.001493   0.000008
    24  H    0.000557   0.003737  -0.009430  -0.077018   0.018804  -0.000066
              13         14         15         16         17         18
     1  C   -0.000026  -0.000184  -0.000628  -0.003783   0.016874  -0.001775
     2  C    0.000007   0.000022   0.000073   0.000498  -0.065193   0.013957
     3  Cl  -0.000000   0.000000   0.000160  -0.004414   0.001515  -0.000103
     4  C    0.000006  -0.000012   0.000038   0.000194   0.441686  -0.061860
     5  C   -0.000012   0.000004  -0.000000   0.000178  -0.059209   0.446656
     6  C    0.000039  -0.000000  -0.000078  -0.000018   0.012171  -0.064143
     7  C    0.000198   0.000179  -0.000019   0.001416  -0.001824   0.012740
     8  N   -0.000245  -0.000006   0.000049  -0.014053  -0.000081   0.000006
     9  N    0.004023   0.000028   0.006383  -0.051561   0.000003   0.000000
    10  C    0.079638  -0.143756   0.099969   0.331085   0.000003  -0.000002
    11  C    0.347483   0.089104  -0.155043   0.065430  -0.000000  -0.000000
    12  Cl  -0.052415   0.002709   0.000535   0.001912  -0.000000   0.000000
    13  C    4.987650   0.303407   0.082716  -0.112265   0.000000   0.000000
    14  C    0.303407   5.061548   0.288027   0.067879   0.000000  -0.000000
    15  C    0.082716   0.288027   5.065207   0.297497  -0.000003   0.000000
    16  C   -0.112265   0.067879   0.297497   5.010476  -0.000006  -0.000001
    17  H    0.000000   0.000000  -0.000003  -0.000006   0.639156  -0.011138
    18  H    0.000000  -0.000000   0.000000  -0.000001  -0.011138   0.642636
    19  H    0.000010  -0.000002   0.000004  -0.000027  -0.000179  -0.010566
    20  H   -0.000509   0.000057   0.000063   0.000557   0.000016  -0.000187
    21  H    0.441673  -0.059205   0.012168  -0.001823  -0.000000   0.000000
    22  H   -0.061859   0.446654  -0.064136   0.012739   0.000000  -0.000000
    23  H    0.012114  -0.065602   0.444548  -0.058461  -0.000000  -0.000000
    24  H   -0.002896   0.013743  -0.061240   0.440693  -0.000025   0.000002
              19         20         21         22         23         24
     1  C    0.014226  -0.076993   0.000003  -0.000002   0.000044  -0.004437
     2  C   -0.001497   0.018814  -0.000000  -0.000000   0.000018  -0.005781
     3  Cl   0.000008  -0.000066  -0.000000   0.000000  -0.000013   0.018598
     4  C    0.012119  -0.002898   0.000000   0.000000   0.000009  -0.000501
     5  C   -0.065631   0.013746   0.000000  -0.000000  -0.000002   0.000056
     6  C    0.444593  -0.061283  -0.000003   0.000000   0.000004   0.000062
     7  C   -0.058480   0.440576  -0.000006  -0.000001  -0.000027   0.000557
     8  N   -0.000100  -0.009450   0.000003   0.000000  -0.000001   0.003737
     9  N   -0.000001   0.003751  -0.000081   0.000006  -0.000100  -0.009430
    10  C    0.000045  -0.004499   0.016872  -0.001774   0.014223  -0.077018
    11  C    0.000018  -0.005886  -0.065175   0.013957  -0.001493   0.018804
    12  Cl  -0.000013   0.018866   0.001511  -0.000103   0.000008  -0.000066
    13  C    0.000010  -0.000509   0.441673  -0.061859   0.012114  -0.002896
    14  C   -0.000002   0.000057  -0.059205   0.446654  -0.065602   0.013743
    15  C    0.000004   0.000063   0.012168  -0.064136   0.444548  -0.061240
    16  C   -0.000027   0.000557  -0.001823   0.012739  -0.058461   0.440693
    17  H   -0.000179   0.000016  -0.000000   0.000000  -0.000000  -0.000025
    18  H   -0.010566  -0.000187   0.000000  -0.000000  -0.000000   0.000002
    19  H    0.643359  -0.011304  -0.000000  -0.000000  -0.000000  -0.000001
    20  H   -0.011304   0.663524  -0.000025   0.000002  -0.000001  -0.000132
    21  H   -0.000000  -0.000025   0.639132  -0.011135  -0.000179   0.000016
    22  H   -0.000000   0.000002  -0.011135   0.642625  -0.010567  -0.000187
    23  H   -0.000000  -0.000001  -0.000179  -0.010567   0.643334  -0.011295
    24  H   -0.000001  -0.000132   0.000016  -0.000187  -0.011295   0.663286
 Mulliken charges:
               1
     1  C    0.009882
     2  C    0.047554
     3  Cl  -0.067861
     4  C   -0.028716
     5  C   -0.004565
     6  C   -0.016269
     7  C    0.015914
     8  N   -0.062599
     9  N   -0.062586
    10  C    0.009741
    11  C    0.047456
    12  Cl  -0.067816
    13  C   -0.028737
    14  C   -0.004592
    15  C   -0.016290
    16  C    0.015859
    17  H    0.026233
    18  H    0.033780
    19  H    0.033420
    20  H    0.013260
    21  H    0.026255
    22  H    0.033781
    23  H    0.033441
    24  H    0.013455
 Sum of Mulliken charges =  -0.00000
 Mulliken charges with hydrogens summed into heavy atoms:
               1
     1  C    0.009882
     2  C    0.047554
     3  Cl  -0.067861
     4  C   -0.002483
     5  C    0.029215
     6  C    0.017151
     7  C    0.029174
     8  N   -0.062599
     9  N   -0.062586
    10  C    0.009741
    11  C    0.047456
    12  Cl  -0.067816
    13  C   -0.002482
    14  C    0.029189
    15  C    0.017150
    16  C    0.029314
 APT charges:
               1
     1  C   -0.406785
     2  C    0.019035
     3  Cl   0.066828
     4  C   -0.608678
     5  C   -0.480098
     6  C   -0.457133
     7  C   -0.416280
     8  N   -0.272658
     9  N    0.136397
    10  C   -0.589209
    11  C   -0.139707
    12  Cl   0.070755
    13  C   -0.566860
    14  C   -0.551290
    15  C   -0.483359
    16  C   -0.378604
    17  H    0.731898
    18  H    0.788502
    19  H    0.553366
    20  H    0.216094
    21  H    0.828266
    22  H    1.051631
    23  H    0.730338
    24  H    0.157549
 Sum of APT charges =  -0.00000
 APT charges with hydrogens summed into heavy atoms:
               1
     1  C   -0.406785
     2  C    0.019035
     3  Cl   0.066828
     4  C    0.123221
     5  C    0.308404
     6  C    0.096234
     7  C   -0.200186
     8  N   -0.272658
     9  N    0.136397
    10  C   -0.589209
    11  C   -0.139707
    12  Cl   0.070755
    13  C    0.261406
    14  C    0.500341
    15  C    0.246979
    16  C   -0.221056
 Electronic spatial extent (au):  <R**2>=           4912.5573
 Charge=              0.0000 electrons
 Dipole moment (field-independent basis, Debye):
    X=              3.8532    Y=              2.1872    Z=              1.1286  Tot=              4.5721
 Quadrupole moment (field-independent basis, Debye-Ang):
   XX=            -95.8948   YY=           -103.7225   ZZ=           -100.9015
   XY=             -4.3005   XZ=             -0.1263   YZ=             -1.3613
 Traceless Quadrupole moment (field-independent basis, Debye-Ang):
   XX=              4.2781   YY=             -3.5496   ZZ=             -0.7285
   XY=             -4.3005   XZ=             -0.1263   YZ=             -1.3613
 Octapole moment (field-independent basis, Debye-Ang**2):
  XXX=           -300.2118  YYY=            269.6421  ZZZ=              0.7460  XYY=           -102.5970
  XXY=             56.9812  XXZ=            -16.0950  XZZ=           -107.0528  YZZ=             91.3584
  YYZ=             14.9939  XYZ=              2.2780
 Hexadecapole moment (field-independent basis, Debye-Ang**3):
 XXXX=          -1990.5415 YYYY=          -1898.6291 ZZZZ=          -2373.6870 XXXY=            391.3851
 XXXZ=            334.5591 YYYX=            582.0353 YYYZ=           -358.3291 ZZZX=            400.5527
 ZZZY=           -307.7397 XXYY=           -656.7320 XXZZ=           -739.5059 YYZZ=           -697.9969
 XXYZ=           -105.3684 YYXZ=            156.2747 ZZXY=            173.1208
 N-N= 1.240898675361D+03 E-N=-5.991776248610D+03  KE= 1.483262710715D+03
  Exact polarizability:       0.000       0.000       0.000       0.000       0.000       0.000
 Approx polarizability:     171.223      11.329     159.994      -5.824      -7.611     210.265
 No NMR shielding tensors so no spin-rotation constants.
 Leave Link  601 at Fri Mar  6 17:04:41 2026, MaxMem=  2415919104 cpu:               0.9 elap:               0.2
 (Enter /prod/precompiled/gaussian/16c2/g16/l716.exe)
 Dipole        = 1.51595079D+00 8.60509231D-01 4.44007441D-01
 Polarizability= 0.00000000D+00 0.00000000D+00 0.00000000D+00
                 0.00000000D+00 0.00000000D+00 0.00000000D+00
 -------------------------------------------------------------------
 Center     Atomic                   Forces (Hartrees/Bohr)
 Number     Number              X              Y              Z
 -------------------------------------------------------------------
      1        6           0.000004871    0.000002223   -0.000002440
      2        6           0.000004196    0.000007272    0.000005562
      3       17          -0.000001218   -0.000006935    0.000004677
      4        6           0.000007589    0.000001462   -0.000008145
      5        6          -0.000007131   -0.000003784    0.000013726
      6        6           0.000005679    0.000001477   -0.000011327
      7        6          -0.000005180    0.000002488    0.000009854
      8        7          -0.000013286    0.000013929    0.000013852
      9        7           0.000013069   -0.000012886   -0.000014001
     10        6           0.000009695    0.000005946    0.000011442
     11        6          -0.000006567   -0.000001222    0.000002429
     12       17           0.000006647   -0.000004583    0.000009747
     13        6           0.000011456    0.000001480    0.000034730
     14        6          -0.000012783   -0.000002593   -0.000034415
     15        6           0.000003126    0.000004096    0.000013831
     16        6          -0.000012723   -0.000000714   -0.000018219
     17        1           0.000000915   -0.000000533    0.000001002
     18        1           0.000000795   -0.000002415   -0.000000074
     19        1          -0.000006309   -0.000007823    0.000003269
     20        1           0.000002061   -0.000004298   -0.000016836
     21        1           0.000004494   -0.000001898   -0.000006482
     22        1           0.000002369    0.000002209   -0.000003168
     23        1          -0.000007345    0.000004142   -0.000013144
     24        1          -0.000004418    0.000002961    0.000004132
 -------------------------------------------------------------------
 Cartesian Forces:  Max     0.000034730 RMS     0.000009614
 Leave Link  716 at Fri Mar  6 17:04:41 2026, MaxMem=  2415919104 cpu:               0.2 elap:               0.1
 (Enter /prod/precompiled/gaussian/16c2/g16/l9999.exe)
 Unable to Open any file for archive entry.
 1\1\GINC-AMD20\FOpt\RwB97XD\def2SVP\C12H8Cl2N2\SVELA\06-Mar-2026\0\\#p
  nosymm scf=(maxconventionalcycles=200,xqc) wB97XD def2SVP opt=(Recalc
 FC=30,cartesian,skipdihedral)\\Title Card\\0,1\C,-0.0182654063,-0.0762
 859303,0.5546439675\C,-0.0530844014,0.069687906,1.9437173948\Cl,-0.670
 6898007,-1.2330693597,2.917769127\C,0.4470157005,1.2198844352,2.547908
 5544\C,0.9705451129,2.2408279474,1.7575604153\C,1.0029152737,2.1056504
 578,0.3700070833\C,0.5130988699,0.9504423044,-0.2308213866\N,-0.645815
 0698,-1.2009230067,-0.0652579003\N,0.0089861714,-2.0136906474,-0.72257
 55414\C,1.4374867012,-1.9690669086,-0.7399050995\C,2.1186245545,-1.744
 5011087,-1.9389175663\Cl,1.2131750213,-1.3040598954,-3.3581335691\C,3.
 5077950128,-1.8200020932,-1.9894807098\C,4.2222689298,-2.1395479433,-0
 .8368320488\C,3.5494101202,-2.3716571274,0.3623608248\C,2.1618967317,-
 2.2844120904,0.4130152823\H,0.4238502999,1.3039238747,3.6352735731\H,1
 .35542354,3.1453364779,2.2319595342\H,1.4135011711,2.9038219924,-0.250
 9780957\H,0.5281259848,0.8300136419,-1.3163273248\H,4.0183360105,-1.62
 45663816,-2.9334839591\H,5.3108910932,-2.2058639062,-0.8793259818\H,4.
 1073024316,-2.621312152,1.266645585\H,1.6193919473,-2.4665784868,1.343
 3818416\\Version=ES64L-G16RevC.02\HF=-1491.0292313\RMSD=9.591e-09\RMSF
 =9.614e-06\Dipole=1.5159508,0.8605092,0.4440074\Polar=0.,0.,0.,0.,0.,0
 .\Quadrupole=3.1806624,-2.6390219,-0.5416405,-3.1973108,-0.0939358,-1.
 0120958\PG=C01 [X(C12H8Cl2N2)]\\@
 The archive entry for this job was punched.


 Cherishing children is the mark of a civilized society.
 -- Joan Ganz Cooney
 Job cpu time:       0 days  6 hours 27 minutes 19.1 seconds.
 Elapsed time:       0 days  0 hours 39 minutes  5.0 seconds.
 File lengths (MBytes):  RWF=    245 Int=      0 D2E=      0 Chk=      7 Scr=      1
 Normal termination of Gaussian 16 at Fri Mar  6 17:04:41 2026.
