 Entering Gaussian System, Link 0=g16
 Initial command:
 /prod/precompiled/gaussian/16c2/g16/l1.exe "/scratch/ucsscms/svela/2076364/Gau-372594.inp" -scrdir="/scratch/ucsscms/svela/2076364/"
 Entering Link 1 = /prod/precompiled/gaussian/16c2/g16/l1.exe PID=    372595.
  
 Copyright (c) 1988-2021, Gaussian, Inc.  All Rights Reserved.
  
 This is part of the Gaussian(R) 16 program.  It is based on
 the Gaussian(R) 09 system (copyright 2009, Gaussian, Inc.),
 the Gaussian(R) 03 system (copyright 2003, Gaussian, Inc.),
 the Gaussian(R) 98 system (copyright 1998, Gaussian, Inc.),
 the Gaussian(R) 94 system (copyright 1995, Gaussian, Inc.),
 the Gaussian 92(TM) system (copyright 1992, Gaussian, Inc.),
 the Gaussian 90(TM) system (copyright 1990, Gaussian, Inc.),
 the Gaussian 88(TM) system (copyright 1988, Gaussian, Inc.),
 the Gaussian 86(TM) system (copyright 1986, Carnegie Mellon
 University), and the Gaussian 82(TM) system (copyright 1983,
 Carnegie Mellon University). Gaussian is a federally registered
 trademark of Gaussian, Inc.
  
 This software contains proprietary and confidential information,
 including trade secrets, belonging to Gaussian, Inc.
  
 This software is provided under written license and may be
 used, copied, transmitted, or stored only in accord with that
 written license.
  
 The following legend is applicable only to US Government
 contracts under FAR:
  
                    RESTRICTED RIGHTS LEGEND
  
 Use, reproduction and disclosure by the US Government is
 subject to restrictions as set forth in subparagraphs (a)
 and (c) of the Commercial Computer Software - Restricted
 Rights clause in FAR 52.227-19.
  
 Gaussian, Inc.
 340 Quinnipiac St., Bldg. 40, Wallingford CT 06492
  
  
 ---------------------------------------------------------------
 Warning -- This program may not be used in any manner that
 competes with the business of Gaussian, Inc. or will provide
 assistance to any competitor of Gaussian, Inc.  The licensee
 of this program is prohibited from giving any competitor of
 Gaussian, Inc. access to this program.  By using this program,
 the user acknowledges that Gaussian, Inc. is engaged in the
 business of creating and licensing software in the field of
 computational chemistry and represents and warrants to the
 licensee that it is not a competitor of Gaussian, Inc. and that
 it will not use this program in any manner prohibited above.
 ---------------------------------------------------------------
  

 Cite this work as:
 Gaussian 16, Revision C.02,
 M. J. Frisch, G. W. Trucks, H. B. Schlegel, G. E. Scuseria, 
 M. A. Robb, J. R. Cheeseman, G. Scalmani, V. Barone, 
 G. A. Petersson, H. Nakatsuji, X. Li, M. Caricato, A. V. Marenich, 
 J. Bloino, B. G. Janesko, R. Gomperts, B. Mennucci, H. P. Hratchian, 
 J. V. Ortiz, A. F. Izmaylov, J. L. Sonnenberg, D. Williams-Young, 
 F. Ding, F. Lipparini, F. Egidi, J. Goings, B. Peng, A. Petrone, 
 T. Henderson, D. Ranasinghe, V. G. Zakrzewski, J. Gao, N. Rega, 
 G. Zheng, W. Liang, M. Hada, M. Ehara, K. Toyota, R. Fukuda, 
 J. Hasegawa, M. Ishida, T. Nakajima, Y. Honda, O. Kitao, H. Nakai, 
 T. Vreven, K. Throssell, J. A. Montgomery, Jr., J. E. Peralta, 
 F. Ogliaro, M. J. Bearpark, J. J. Heyd, E. N. Brothers, K. N. Kudin, 
 V. N. Staroverov, T. A. Keith, R. Kobayashi, J. Normand, 
 K. Raghavachari, A. P. Rendell, J. C. Burant, S. S. Iyengar, 
 J. Tomasi, M. Cossi, J. M. Millam, M. Klene, C. Adamo, R. Cammi, 
 J. W. Ochterski, R. L. Martin, K. Morokuma, O. Farkas, 
 J. B. Foresman, and D. J. Fox, Gaussian, Inc., Wallingford CT, 2019.
 
 ******************************************
 Gaussian 16:  ES64L-G16RevC.02  7-Dec-2021
                 6-Mar-2026 
 ******************************************
 %nprocs=12
 Will use up to   12 processors via shared memory.
 %mem=18gb
 %chk=test_tsinv_l_a_ts_r1.chk
 ----------------------------------------------------------------------
 #p nosymm scf=(maxconventionalcycles=200,xqc) wB97XD def2SVP opt=(TS,N
 oEigenTest,RecalcFC=30,Cartesian,SkipDihedral,MaxCycles=300)
 ----------------------------------------------------------------------
 1/5=1,6=300,10=7,11=1,18=10,26=3,38=1,71=30,156=2/1,3;
 2/12=2,15=1,17=6,18=5,29=2,40=1/2;
 3/5=43,7=101,11=2,25=1,30=1,71=2,74=-58,140=1/1,2,3;
 4//1;
 5/5=2,8=3,13=1,38=5,85=200/2,8;
 8/6=4,10=90,11=11/1;
 11/6=1,8=1,9=11,15=111,16=1,31=1/1,2,10;
 10/6=1,31=1/2;
 6/7=2,8=2,9=2,10=2,28=1/1;
 7/7=1,10=1,25=1,30=1/1,2,3,16;
 1/5=1,6=300,10=7,11=1,18=10,26=3,71=30,156=2/3(3);
 2/15=1,29=1/2;
 7/7=1,9=1,25=1,30=1,44=-1/16;
 99/12=1/99;
 2/15=1,29=1/2;
 3/5=43,7=101,11=2,25=1,30=1,71=2,74=-58,140=1/1,2,3;
 4/5=5,16=3,69=1/1;
 5/5=2,8=3,13=1,38=5,85=200/2,8;
 8/6=4,10=90,11=11/1;
 11/6=1,8=1,9=11,15=111,16=1,31=1/1,2,10;
 10/6=1,31=1/2;
 7/7=1,10=1,25=1,30=1/1,2,3,16;
 1/5=1,6=300,11=1,18=10,26=3,71=30,156=2/3(-8);
 2/15=1,29=1/2;
 6/7=2,8=2,9=2,10=2,19=2,28=1/1;
 7/7=1,9=1,25=1,30=1,44=-1/16;
 99/9=1,12=1/99;
 Leave Link    1 at Fri Mar  6 16:25:19 2026, MaxMem=  2415919104 cpu:               0.2 elap:               0.1
 (Enter /prod/precompiled/gaussian/16c2/g16/l101.exe)
 ----------
 Title Card
 ----------
 Symbolic Z-matrix:
 Charge =  0 Multiplicity = 1
 C                     1.42769   0.        0. 
 C                     2.29491   1.11749   0. 
 Cl                    1.775     2.77393   0.02262 
 C                     3.69049   0.94941  -0.03039 
 C                     4.25758  -0.32015  -0.0676 
 C                     3.43136  -1.43528  -0.0589 
 C                     2.0378   -1.27426  -0.01827 
 N                     0.        0.        0. 
 N                    -1.24459   0.00217   0. 
 C                    -1.84299  -1.27339   0.08634 
 C                    -1.57575  -2.21668   1.09233 
 Cl                   -0.39377  -1.94889   2.32835 
 C                    -2.30528  -3.41374   1.16364 
 C                    -3.31757  -3.68152   0.24284 
 C                    -3.61385  -2.75057  -0.74517 
 C                    -2.88694  -1.55468  -0.8162 
 H                     4.34114   1.82088  -0.03103 
 H                     5.33908  -0.43089  -0.10293 
 H                     3.86912  -2.43128  -0.08647 
 H                     1.41467  -2.1675   -0.00379 
 H                    -2.09683  -4.13255   1.95109 
 H                    -3.88176  -4.61      0.30902 
 H                    -4.41754  -2.9446   -1.45275 
 H                    -3.15409  -0.8207   -1.57376 
 
 ITRead=  0  0  0  0  0  0  0  0  0  0  0  0  0  0  0  0  0  0  0  0
 ITRead=  0  0  0  0
 MicOpt= -1 -1 -1 -1 -1 -1 -1 -1 -1 -1 -1 -1 -1 -1 -1 -1 -1 -1 -1 -1
 MicOpt= -1 -1 -1 -1
 NAtoms=     24 NQM=       24 NQMF=       0 NMMI=      0 NMMIF=      0
                NMic=       0 NMicF=      0.
                    Isotopes and Nuclear Properties:
 (Nuclear quadrupole moments (NQMom) in fm**2, nuclear magnetic moments (NMagM)
  in nuclear magnetons)

  Atom         1           2           3           4           5           6           7           8           9          10
 IAtWgt=          12          12          35          12          12          12          12          14          14          12
 AtmWgt=  12.0000000  12.0000000  34.9688527  12.0000000  12.0000000  12.0000000  12.0000000  14.0030740  14.0030740  12.0000000
 NucSpn=           0           0           3           0           0           0           0           2           2           0
 AtZEff=  -0.0000000  -0.0000000  -0.0000000  -0.0000000  -0.0000000  -0.0000000  -0.0000000  -0.0000000  -0.0000000  -0.0000000
 NQMom=    0.0000000   0.0000000  -8.1650000   0.0000000   0.0000000   0.0000000   0.0000000   2.0440000   2.0440000   0.0000000
 NMagM=    0.0000000   0.0000000   0.8218740   0.0000000   0.0000000   0.0000000   0.0000000   0.4037610   0.4037610   0.0000000
 AtZNuc=   6.0000000   6.0000000  17.0000000   6.0000000   6.0000000   6.0000000   6.0000000   7.0000000   7.0000000   6.0000000

  Atom        11          12          13          14          15          16          17          18          19          20
 IAtWgt=          12          35          12          12          12          12           1           1           1           1
 AtmWgt=  12.0000000  34.9688527  12.0000000  12.0000000  12.0000000  12.0000000   1.0078250   1.0078250   1.0078250   1.0078250
 NucSpn=           0           3           0           0           0           0           1           1           1           1
 AtZEff=  -0.0000000  -0.0000000  -0.0000000  -0.0000000  -0.0000000  -0.0000000  -0.0000000  -0.0000000  -0.0000000  -0.0000000
 NQMom=    0.0000000  -8.1650000   0.0000000   0.0000000   0.0000000   0.0000000   0.0000000   0.0000000   0.0000000   0.0000000
 NMagM=    0.0000000   0.8218740   0.0000000   0.0000000   0.0000000   0.0000000   2.7928460   2.7928460   2.7928460   2.7928460
 AtZNuc=   6.0000000  17.0000000   6.0000000   6.0000000   6.0000000   6.0000000   1.0000000   1.0000000   1.0000000   1.0000000

  Atom        21          22          23          24
 IAtWgt=           1           1           1           1
 AtmWgt=   1.0078250   1.0078250   1.0078250   1.0078250
 NucSpn=           1           1           1           1
 AtZEff=  -0.0000000  -0.0000000  -0.0000000  -0.0000000
 NQMom=    0.0000000   0.0000000   0.0000000   0.0000000
 NMagM=    2.7928460   2.7928460   2.7928460   2.7928460
 AtZNuc=   1.0000000   1.0000000   1.0000000   1.0000000
 Leave Link  101 at Fri Mar  6 16:25:19 2026, MaxMem=  2415919104 cpu:               0.1 elap:               0.1
 (Enter /prod/precompiled/gaussian/16c2/g16/l103.exe)

 GradGradGradGradGradGradGradGradGradGradGradGradGradGradGradGradGradGrad
 Berny optimization.
 Initialization pass.
 No Z-matrix variables, so optimization will use Cartesian coordinates.
 Trust Radius=3.00D-01 FncErr=1.00D-07 GrdErr=1.00D-06 EigMax=2.50D+02 EigMin=1.00D-04
 Number of steps in this run=    144 maximum allowed number of steps=    144.
 Search for a saddle point of order  1.
 Step   0 in ReCalcFC=30 IGetFC= 4 compute analytic Hessian.
 GradGradGradGradGradGradGradGradGradGradGradGradGradGradGradGradGradGrad

 Leave Link  103 at Fri Mar  6 16:25:20 2026, MaxMem=  2415919104 cpu:               0.1 elap:               0.1
 (Enter /prod/precompiled/gaussian/16c2/g16/l202.exe)
 ---------------------------------------------------------------------------------------------------
                            Z-MATRIX (ANGSTROMS AND DEGREES)
   CD    Cent   Atom    N1       Length/X        N2       Alpha/Y        N3        Beta/Z          J
 ---------------------------------------------------------------------------------------------------
      1      1  C        0   1.427693          0.000000          0.000000
      2      2  C        0   2.294907          1.117494          0.000000
      3      3  Cl       0   1.775001          2.773933          0.022616
      4      4  C        0   3.690491          0.949409         -0.030387
      5      5  C        0   4.257584         -0.320149         -0.067602
      6      6  C        0   3.431361         -1.435280         -0.058902
      7      7  C        0   2.037804         -1.274257         -0.018271
      8      8  N        0   0.000000          0.000000          0.000000
      9      9  N        0  -1.244593          0.002172          0.000000
     10     10  C        0  -1.842987         -1.273388          0.086337
     11     11  C        0  -1.575751         -2.216679          1.092331
     12     12  Cl       0  -0.393772         -1.948894          2.328353
     13     13  C        0  -2.305279         -3.413742          1.163644
     14     14  C        0  -3.317574         -3.681515          0.242838
     15     15  C        0  -3.613851         -2.750569         -0.745167
     16     16  C        0  -2.886939         -1.554682         -0.816203
     17     17  H        0   4.341141          1.820877         -0.031026
     18     18  H        0   5.339076         -0.430890         -0.102927
     19     19  H        0   3.869124         -2.431285         -0.086472
     20     20  H        0   1.414669         -2.167503         -0.003786
     21     21  H        0  -2.096834         -4.132550          1.951089
     22     22  H        0  -3.881757         -4.609997          0.309016
     23     23  H        0  -4.417538         -2.944601         -1.452751
     24     24  H        0  -3.154090         -0.820697         -1.573755
 ---------------------------------------------------------------------------------------------------
                         Z-Matrix orientation:                         
 ---------------------------------------------------------------------
 Center     Atomic      Atomic             Coordinates (Angstroms)
 Number     Number       Type             X           Y           Z
 ---------------------------------------------------------------------
      1          6           0        1.427693    0.000000    0.000000
      2          6           0        2.294907    1.117494    0.000000
      3         17           0        1.775001    2.773933    0.022616
      4          6           0        3.690491    0.949409   -0.030387
      5          6           0        4.257584   -0.320149   -0.067602
      6          6           0        3.431361   -1.435280   -0.058902
      7          6           0        2.037804   -1.274257   -0.018271
      8          7           0        0.000000    0.000000    0.000000
      9          7           0       -1.244593    0.002172    0.000000
     10          6           0       -1.842987   -1.273388    0.086337
     11          6           0       -1.575751   -2.216679    1.092331
     12         17           0       -0.393772   -1.948894    2.328353
     13          6           0       -2.305279   -3.413742    1.163644
     14          6           0       -3.317574   -3.681515    0.242838
     15          6           0       -3.613851   -2.750569   -0.745167
     16          6           0       -2.886939   -1.554682   -0.816203
     17          1           0        4.341141    1.820877   -0.031026
     18          1           0        5.339076   -0.430890   -0.102927
     19          1           0        3.869124   -2.431285   -0.086472
     20          1           0        1.414669   -2.167503   -0.003786
     21          1           0       -2.096834   -4.132550    1.951089
     22          1           0       -3.881757   -4.609997    0.309016
     23          1           0       -4.417538   -2.944601   -1.452751
     24          1           0       -3.154090   -0.820697   -1.573755
 ---------------------------------------------------------------------
                    Distance matrix (angstroms):
                    1          2          3          4          5
     1  C    0.000000
     2  C    1.414515   0.000000
     3  Cl   2.795682   1.736261   0.000000
     4  C    2.454090   1.405998   2.645902   0.000000
     5  C    2.848745   2.433822   3.967959   1.390955   0.000000
     6  C    2.465397   2.794933   4.524118   2.398896   1.387890
     7  C    1.412905   2.405599   4.056917   2.770598   2.416646
     8  N    1.427693   2.552526   3.293303   3.810777   4.270139
     9  N    2.672287   3.711065   4.098917   5.025260   5.512024
    10  C    3.510886   4.779742   5.429061   5.964380   6.176514
    11  C    3.889412   5.224164   6.105574   6.246432   6.242601
    12  Cl   3.540784   4.696058   5.685516   5.535794   5.479829
    13  C    5.190644   6.561088   7.499197   7.510796   7.359175
    14  C    6.010830   7.388464   8.225304   8.404349   8.293261
    15  C    5.791206   7.101451   7.755600   8.219134   8.265926
    16  C    4.658248   5.887125   6.416713   7.081706   7.288943
    17  H    3.435802   2.163974   2.737931   1.087567   2.142968
    18  H    3.936391   3.416878   4.794714   2.151353   1.087721
    19  H    3.446623   3.883229   5.611733   3.385875   2.146661
    20  H    2.167545   3.400888   4.954627   3.859432   3.391011
    21  H    5.771222   7.117380   8.149210   7.952716   7.680374
    22  H    7.038311   8.429165   9.306093   9.400060   9.208339
    23  H    6.704318   7.979224   8.557212   9.106403   9.168649
    24  H    4.913551   5.993735   6.306005   7.236266   7.579707
                    6          7          8          9         10
     6  C    0.000000
     7  C    1.403417   0.000000
     8  N    3.719911   2.403479   0.000000
     9  N    4.892268   3.521894   1.244595   0.000000
    10  C    5.278830   3.882201   2.241779   1.411589   0.000000
    11  C    5.196835   3.896072   2.930844   2.495226   1.404720
    12  Cl   4.538108   3.445917   3.061776   3.154645   2.753755
    13  C    6.190151   4.983642   4.280422   3.761328   2.440373
    14  C    7.119322   5.877341   4.961736   4.233884   2.828069
    15  C    7.199719   5.886347   4.602263   3.707592   2.451412
    16  C    6.364643   4.996842   3.379000   2.405677   1.408382
    17  H    3.380981   3.858157   4.707660   5.874443   6.916046
    18  H    2.156412   3.408347   5.357424   6.598699   7.233786
    19  H    1.088312   2.167279   4.570421   5.663858   5.830849
    20  H    2.146214   1.089218   2.588315   3.432081   3.379332
    21  H    6.471188   5.398467   5.028064   4.650698   3.422944
    22  H    7.980970   6.802608   6.034534   5.321863   3.916520
    23  H    8.113327   6.820500   5.504162   4.567443   3.433665
    24  H    6.785327   5.438843   3.619189   2.607680   2.163290
                   11         12         13         14         15
    11  C    0.000000
    12  Cl   1.731050   0.000000
    13  C    1.403658   2.675105   0.000000
    14  C    2.429265   3.987476   1.394391   0.000000
    15  C    2.795584   4.523065   2.407430   1.389458   0.000000
    16  C    2.408310   4.032309   2.777450   2.414629   1.401283
    17  H    7.250752   6.495941   8.544201   9.434365   9.202718
    18  H    7.241030   6.409447   8.302877   9.253308   9.270830
    19  H    5.575150   4.923044   6.375834   7.302065   7.518692
    20  H    3.185358   2.959243   4.093167   4.974654   5.116212
    21  H    2.163228   2.794835   1.086372   2.147501   3.388364
    22  H    3.414560   4.829620   2.155620   1.088467   2.154193
    23  H    3.883692   5.610604   3.395181   2.151275   1.088226
    24  H    3.398225   4.911072   3.864934   3.392789   2.149964
                   16         17         18         19         20
    16  C    0.000000
    17  H    8.015987   0.000000
    18  H    8.333006   2.464041   0.000000
    19  H    6.851666   4.278640   2.482460   0.000000
    20  H    4.420340   4.946934   4.292624   2.469973   0.000000
    21  H    3.863622   8.989972   8.556520   6.529825   4.473656
    22  H    3.404516  10.444512  10.132048   8.060977   5.840869
    23  H    2.163285  10.072018  10.165249   8.414213   6.059540
    24  H    1.088112   8.095456   8.628392   7.357414   5.015202
                   21         22         23         24
    21  H    0.000000
    22  H    2.471904   0.000000
    23  H    4.287542   2.482827   0.000000
    24  H    4.950827   4.293381   2.474250   0.000000
 Symmetry turned off by external request.
 Stoichiometry    C12H8Cl2N2
 Framework group  C1[X(C12H8Cl2N2)]
 Deg. of freedom    66
 Full point group                 C1      NOp   1
 Rotational constants (GHZ):           0.8384401           0.2392011           0.2128219
 Leave Link  202 at Fri Mar  6 16:25:20 2026, MaxMem=  2415919104 cpu:               0.1 elap:               0.1
 (Enter /prod/precompiled/gaussian/16c2/g16/l301.exe)
 Standard basis: def2SVP (5D, 7F)
 Ernie: Thresh=  0.10000D-02 Tol=  0.10000D-05 Strict=F.
   272 basis functions,   480 primitive gaussians,   288 cartesian basis functions
    64 alpha electrons       64 beta electrons
       nuclear repulsion energy      1191.3007092297 Hartrees.
 IExCor= 4639 DFT=T Ex+Corr=wB97XD ExCW=0 ScaHFX=  1.000000
 ScaDFX=  1.000000  1.000000  1.000000  1.000000 ScalE2=  1.000000  1.000000
 IRadAn=      5 IRanWt=     -1 IRanGd=            0 ICorTp=0 IEmpDi=121
 HFx  wShort=  0.000000 wLong=  0.200000 cFull=  0.222036 cShort=  0.000000 cLong=  0.777964
 DFx  wShort=  0.000000 wLong=  0.200000 cFull=  0.000000 cShort=  0.000000 cLong=  1.000000
 NAtoms=   24 NActive=   24 NUniq=   24 SFac= 1.00D+00 NAtFMM=   60 NAOKFM=F Big=F
 Integral buffers will be    131072 words long.
 Raffenetti 2 integral format.
 Two-electron integral symmetry is turned off.
 R6Disp:  Grimme-D2 Dispersion energy=       -0.0142849521 Hartrees.
 Nuclear repulsion after empirical dispersion term =     1191.2864242776 Hartrees.
 Leave Link  301 at Fri Mar  6 16:25:20 2026, MaxMem=  2415919104 cpu:               0.1 elap:               0.4
 (Enter /prod/precompiled/gaussian/16c2/g16/l302.exe)
 NPDir=0 NMtPBC=     1 NCelOv=     1 NCel=       1 NClECP=     1 NCelD=      1
         NCelK=      1 NCelE2=     1 NClLst=     1 CellRange=     0.0.
 One-electron integrals computed using PRISM.
   1 Symmetry operations used in ECPInt.
 ECPInt:  NShTT=    7750 NPrTT=   30142 LenC2=    7029 LenP2D=   19099.
 LDataN:  DoStor=T MaxTD1= 4 Len=   56
 NBasis=   272 RedAO= T EigKep=  2.29D-04  NBF=   272
 NBsUse=   272 1.00D-06 EigRej= -1.00D+00 NBFU=   272
 Precomputing XC quadrature grid using
 IXCGrd= 4 IRadAn=           5 IRanWt=          -1 IRanGd=           0 AccXCQ= 0.00D+00.
 Generated NRdTot=       0 NPtTot=           0 NUsed=           0 NTot=          32
 NSgBfM=   286   286   286   286   286 MxSgAt=    24 MxSgA2=    24.
 Leave Link  302 at Fri Mar  6 16:25:20 2026, MaxMem=  2415919104 cpu:               1.5 elap:               0.3
 (Enter /prod/precompiled/gaussian/16c2/g16/l303.exe)
 DipDrv:  MaxL=1.
 Leave Link  303 at Fri Mar  6 16:25:20 2026, MaxMem=  2415919104 cpu:               0.2 elap:               0.1
 (Enter /prod/precompiled/gaussian/16c2/g16/l401.exe)
 ExpMin= 1.22D-01 ExpMax= 1.04D+04 ExpMxC= 1.57D+03 IAcc=3 IRadAn=         5 AccDes= 0.00D+00
 Harris functional with IExCor= 4639 and IRadAn=       5 diagonalized for initial guess.
 HarFok:  IExCor= 4639 AccDes= 0.00D+00 IRadAn=         5 IDoV= 1 UseB2=F ITyADJ=14
 ICtDFT=  3500011 ScaDFX=  1.000000  1.000000  1.000000  1.000000
 FoFCou: FMM=F IPFlag=           0 FMFlag=      100000 FMFlg1=           0
         NFxFlg=           0 DoJE=T BraDBF=F KetDBF=T FulRan=T
         wScrn=  0.000000 ICntrl=       500 IOpCl=  0 I1Cent=   200000004 NGrid=           0
         NMat0=    1 NMatS0=      1 NMatT0=    0 NMatD0=    1 NMtDS0=    0 NMtDT0=    0
 Symmetry not used in FoFCou.
 Harris En= -1450.73886590239    
 JPrj=0 DoOrth=F DoCkMO=F.
 Leave Link  401 at Fri Mar  6 16:25:21 2026, MaxMem=  2415919104 cpu:               6.3 elap:               0.9
 (Enter /prod/precompiled/gaussian/16c2/g16/l502.exe)
 Two-electron integral symmetry not used.
 Closed shell SCF:
 Using DIIS extrapolation, IDIIS=  1040.
 NGot=  2415919104 LenX=  2415746906 LenY=  2415663521
 Requested convergence on RMS density matrix=1.00D-08 within 200 cycles.
 Requested convergence on MAX density matrix=1.00D-06.
 Requested convergence on             energy=1.00D-06.
 No special actions if energy rises.
 Fock matrices will be formed incrementally for  20 cycles.
 Integral accuracy reduced to 1.0D-05 until final iterations.

 Cycle   1  Pass 0  IDiag  1:
 FoFJK:  IHMeth= 1 ICntrl=       0 DoSepK=T KAlg= 0 I1Cent=           0 FoldK=F
 IRaf=         1 NMat=       1 IRICut=       1 DoRegI=T DoRafI=F ISym2E= 0 IDoP0=0 IntGTp=1.
 FoFCou: FMM=F IPFlag=           0 FMFlag=      100000 FMFlg1=           0
         NFxFlg=           0 DoJE=T BraDBF=F KetDBF=F FulRan=T
         wScrn=  0.000000 ICntrl=       500 IOpCl=  0 I1Cent=           0 NGrid=           0
         NMat0=    1 NMatS0=      1 NMatT0=    0 NMatD0=    1 NMtDS0=    0 NMtDT0=    0
 Symmetry not used in FoFCou.
 E= -1490.53845507726    
 DIIS: error= 4.46D-02 at cycle   1 NSaved=   1.
 NSaved= 1 IEnMin= 1 EnMin= -1490.53845507726     IErMin= 1 ErrMin= 4.46D-02
 ErrMax= 4.46D-02  0.00D+00 EMaxC= 1.00D-01 BMatC= 7.12D-01 BMatP= 7.12D-01
 IDIUse=3 WtCom= 5.54D-01 WtEn= 4.46D-01
 Coeff-Com:  0.100D+01
 Coeff-En:   0.100D+01
 Coeff:      0.100D+01
 Gap=     0.317 Goal=   None    Shift=    0.000
 GapD=    0.317 DampG=1.000 DampE=0.500 DampFc=0.5000 IDamp=-1.
 Damping current iteration by 5.00D-01
 RMSDP=6.51D-03 MaxDP=2.72D-01              OVMax= 2.40D-01

 Cycle   2  Pass 0  IDiag  1:
 RMSU=  3.20D-03    CP:  9.76D-01
 E= -1490.74315921537     Delta-E=       -0.204704138112 Rises=F Damp=T
 DIIS: error= 1.46D-02 at cycle   2 NSaved=   2.
 NSaved= 2 IEnMin= 2 EnMin= -1490.74315921537     IErMin= 2 ErrMin= 1.46D-02
 ErrMax= 1.46D-02  0.00D+00 EMaxC= 1.00D-01 BMatC= 9.24D-02 BMatP= 7.12D-01
 IDIUse=3 WtCom= 8.54D-01 WtEn= 1.46D-01
 Coeff-Com: -0.258D+00 0.126D+01
 Coeff-En:   0.000D+00 0.100D+01
 Coeff:     -0.220D+00 0.122D+01
 Gap=     0.365 Goal=   None    Shift=    0.000
 RMSDP=2.28D-03 MaxDP=7.51D-02 DE=-2.05D-01 OVMax= 1.85D-01

 Cycle   3  Pass 0  IDiag  1:
 RMSU=  2.15D-03    CP:  9.60D-01  1.21D+00
 E= -1490.92391465547     Delta-E=       -0.180755440099 Rises=F Damp=F
 DIIS: error= 7.47D-03 at cycle   3 NSaved=   3.
 NSaved= 3 IEnMin= 3 EnMin= -1490.92391465547     IErMin= 3 ErrMin= 7.47D-03
 ErrMax= 7.47D-03  0.00D+00 EMaxC= 1.00D-01 BMatC= 2.88D-02 BMatP= 9.24D-02
 IDIUse=3 WtCom= 9.25D-01 WtEn= 7.47D-02
 Coeff-Com: -0.187D+00 0.518D+00 0.669D+00
 Coeff-En:   0.000D+00 0.000D+00 0.100D+01
 Coeff:     -0.173D+00 0.479D+00 0.694D+00
 Gap=     0.244 Goal=   None    Shift=    0.000
 RMSDP=1.16D-03 MaxDP=3.38D-02 DE=-1.81D-01 OVMax= 6.49D-02

 Cycle   4  Pass 0  IDiag  1:
 RMSU=  8.26D-04    CP:  9.53D-01  1.39D+00  7.51D-01
 E= -1490.95377564897     Delta-E=       -0.029860993493 Rises=F Damp=F
 DIIS: error= 2.43D-03 at cycle   4 NSaved=   4.
 NSaved= 4 IEnMin= 4 EnMin= -1490.95377564897     IErMin= 4 ErrMin= 2.43D-03
 ErrMax= 2.43D-03  0.00D+00 EMaxC= 1.00D-01 BMatC= 2.62D-03 BMatP= 2.88D-02
 IDIUse=3 WtCom= 9.76D-01 WtEn= 2.43D-02
 Coeff-Com: -0.509D-01 0.105D+00 0.291D+00 0.656D+00
 Coeff-En:   0.000D+00 0.000D+00 0.000D+00 0.100D+01
 Coeff:     -0.496D-01 0.102D+00 0.283D+00 0.664D+00
 Gap=     0.227 Goal=   None    Shift=    0.000
 RMSDP=2.96D-04 MaxDP=8.90D-03 DE=-2.99D-02 OVMax= 1.95D-02

 Cycle   5  Pass 0  IDiag  1:
 RMSU=  1.77D-04    CP:  9.52D-01  1.39D+00  8.44D-01  8.50D-01
 E= -1490.95682861451     Delta-E=       -0.003052965540 Rises=F Damp=F
 DIIS: error= 6.75D-04 at cycle   5 NSaved=   5.
 NSaved= 5 IEnMin= 5 EnMin= -1490.95682861451     IErMin= 5 ErrMin= 6.75D-04
 ErrMax= 6.75D-04  0.00D+00 EMaxC= 1.00D-01 BMatC= 1.69D-04 BMatP= 2.62D-03
 IDIUse=3 WtCom= 9.93D-01 WtEn= 6.75D-03
 Coeff-Com: -0.684D-02 0.656D-02 0.676D-01 0.255D+00 0.678D+00
 Coeff-En:   0.000D+00 0.000D+00 0.000D+00 0.000D+00 0.100D+01
 Coeff:     -0.680D-02 0.651D-02 0.672D-01 0.253D+00 0.680D+00
 Gap=     0.228 Goal=   None    Shift=    0.000
 RMSDP=1.08D-04 MaxDP=2.95D-03 DE=-3.05D-03 OVMax= 1.28D-02

 Cycle   6  Pass 0  IDiag  1:
 RMSU=  8.75D-05    CP:  9.52D-01  1.40D+00  8.50D-01  9.18D-01  1.08D+00
 E= -1490.95721091753     Delta-E=       -0.000382303025 Rises=F Damp=F
 DIIS: error= 4.67D-04 at cycle   6 NSaved=   6.
 NSaved= 6 IEnMin= 6 EnMin= -1490.95721091753     IErMin= 6 ErrMin= 4.67D-04
 ErrMax= 4.67D-04  0.00D+00 EMaxC= 1.00D-01 BMatC= 4.49D-05 BMatP= 1.69D-04
 IDIUse=3 WtCom= 9.95D-01 WtEn= 4.67D-03
 Coeff-Com:  0.121D-01-0.272D-01-0.544D-01-0.859D-01 0.271D+00 0.884D+00
 Coeff-En:   0.000D+00 0.000D+00 0.000D+00 0.000D+00 0.000D+00 0.100D+01
 Coeff:      0.121D-01-0.271D-01-0.541D-01-0.855D-01 0.270D+00 0.885D+00
 Gap=     0.230 Goal=   None    Shift=    0.000
 RMSDP=1.02D-04 MaxDP=2.78D-03 DE=-3.82D-04 OVMax= 1.55D-02

 Cycle   7  Pass 0  IDiag  1:
 RMSU=  4.73D-05    CP:  9.51D-01  1.40D+00  8.58D-01  9.78D-01  1.43D+00
                    CP:  1.43D+00
 E= -1490.95743960403     Delta-E=       -0.000228686496 Rises=F Damp=F
 DIIS: error= 3.03D-04 at cycle   7 NSaved=   7.
 NSaved= 7 IEnMin= 7 EnMin= -1490.95743960403     IErMin= 7 ErrMin= 3.03D-04
 ErrMax= 3.03D-04  0.00D+00 EMaxC= 1.00D-01 BMatC= 1.37D-05 BMatP= 4.49D-05
 IDIUse=3 WtCom= 9.97D-01 WtEn= 3.03D-03
 Coeff-Com:  0.601D-02-0.113D-01-0.355D-01-0.878D-01-0.941D-02 0.396D+00
 Coeff-Com:  0.742D+00
 Coeff-En:   0.000D+00 0.000D+00 0.000D+00 0.000D+00 0.000D+00 0.000D+00
 Coeff-En:   0.100D+01
 Coeff:      0.599D-02-0.113D-01-0.354D-01-0.875D-01-0.938D-02 0.395D+00
 Coeff:      0.742D+00
 Gap=     0.230 Goal=   None    Shift=    0.000
 RMSDP=5.87D-05 MaxDP=1.86D-03 DE=-2.29D-04 OVMax= 1.00D-02

 Cycle   8  Pass 0  IDiag  1:
 RMSU=  2.54D-05    CP:  9.51D-01  1.41D+00  8.61D-01  9.93D-01  1.61D+00
                    CP:  1.81D+00  1.43D+00
 E= -1490.95753441604     Delta-E=       -0.000094812016 Rises=F Damp=F
 DIIS: error= 2.20D-04 at cycle   8 NSaved=   8.
 NSaved= 8 IEnMin= 8 EnMin= -1490.95753441604     IErMin= 8 ErrMin= 2.20D-04
 ErrMax= 2.20D-04  0.00D+00 EMaxC= 1.00D-01 BMatC= 5.56D-06 BMatP= 1.37D-05
 IDIUse=3 WtCom= 9.98D-01 WtEn= 2.20D-03
 Coeff-Com: -0.299D-02 0.713D-02 0.996D-02 0.716D-02-0.842D-01-0.188D+00
 Coeff-Com:  0.212D+00 0.104D+01
 Coeff-En:   0.000D+00 0.000D+00 0.000D+00 0.000D+00 0.000D+00 0.000D+00
 Coeff-En:   0.000D+00 0.100D+01
 Coeff:     -0.299D-02 0.711D-02 0.994D-02 0.715D-02-0.840D-01-0.188D+00
 Coeff:      0.211D+00 0.104D+01
 Gap=     0.230 Goal=   None    Shift=    0.000
 RMSDP=6.17D-05 MaxDP=2.25D-03 DE=-9.48D-05 OVMax= 1.10D-02

 Cycle   9  Pass 0  IDiag  1:
 RMSU=  1.54D-05    CP:  9.51D-01  1.41D+00  8.60D-01  1.00D+00  1.76D+00
                    CP:  2.19D+00  2.18D+00  1.72D+00
 E= -1490.95760740900     Delta-E=       -0.000072992956 Rises=F Damp=F
 DIIS: error= 1.53D-04 at cycle   9 NSaved=   9.
 NSaved= 9 IEnMin= 9 EnMin= -1490.95760740900     IErMin= 9 ErrMin= 1.53D-04
 ErrMax= 1.53D-04  0.00D+00 EMaxC= 1.00D-01 BMatC= 2.80D-06 BMatP= 5.56D-06
 IDIUse=3 WtCom= 9.98D-01 WtEn= 1.53D-03
 Coeff-Com: -0.533D-02 0.106D-01 0.284D-01 0.622D-01-0.307D-01-0.345D+00
 Coeff-Com: -0.389D+00 0.385D+00 0.128D+01
 Coeff-En:   0.000D+00 0.000D+00 0.000D+00 0.000D+00 0.000D+00 0.000D+00
 Coeff-En:   0.000D+00 0.000D+00 0.100D+01
 Coeff:     -0.532D-02 0.105D-01 0.284D-01 0.621D-01-0.307D-01-0.344D+00
 Coeff:     -0.388D+00 0.385D+00 0.128D+01
 Gap=     0.230 Goal=   None    Shift=    0.000
 RMSDP=8.09D-05 MaxDP=3.06D-03 DE=-7.30D-05 OVMax= 1.45D-02

 Cycle  10  Pass 0  IDiag  1:
 RMSU=  1.41D-05    CP:  9.51D-01  1.41D+00  8.60D-01  1.02D+00  1.95D+00
                    CP:  2.66D+00  3.00D+00  2.96D+00  2.07D+00
 E= -1490.95766858524     Delta-E=       -0.000061176239 Rises=F Damp=F
 DIIS: error= 6.61D-05 at cycle  10 NSaved=  10.
 NSaved=10 IEnMin=10 EnMin= -1490.95766858524     IErMin=10 ErrMin= 6.61D-05
 ErrMax= 6.61D-05  0.00D+00 EMaxC= 1.00D-01 BMatC= 8.26D-07 BMatP= 2.80D-06
 IDIUse=1 WtCom= 1.00D+00 WtEn= 0.00D+00
 Coeff-Com:  0.198D-02-0.449D-02-0.625D-02-0.550D-02 0.413D-01 0.105D+00
 Coeff-Com: -0.107D+00-0.549D+00 0.673D-01 0.146D+01
 Coeff:      0.198D-02-0.449D-02-0.625D-02-0.550D-02 0.413D-01 0.105D+00
 Coeff:     -0.107D+00-0.549D+00 0.673D-01 0.146D+01
 Gap=     0.230 Goal=   None    Shift=    0.000
 RMSDP=6.25D-05 MaxDP=2.47D-03 DE=-6.12D-05 OVMax= 1.11D-02

 Cycle  11  Pass 0  IDiag  1:
 RMSU=  3.43D-05    CP:  9.51D-01  1.41D+00  8.61D-01  1.03D+00  2.07D+00
                    CP:  2.99D+00  3.00D+00  3.00D+00  3.00D+00  3.00D+00
 E= -1490.95768983284     Delta-E=       -0.000021247600 Rises=F Damp=F
 DIIS: error= 2.14D-05 at cycle  11 NSaved=  11.
 NSaved=11 IEnMin=11 EnMin= -1490.95768983284     IErMin=11 ErrMin= 2.14D-05
 ErrMax= 2.14D-05  0.00D+00 EMaxC= 1.00D-01 BMatC= 1.51D-07 BMatP= 8.26D-07
 IDIUse=1 WtCom= 1.00D+00 WtEn= 0.00D+00
 Coeff-Com:  0.155D-02-0.320D-02-0.690D-02-0.127D-01 0.195D-01 0.102D+00
 Coeff-Com:  0.314D-01-0.249D+00-0.226D+00 0.461D+00 0.882D+00
 Coeff:      0.155D-02-0.320D-02-0.690D-02-0.127D-01 0.195D-01 0.102D+00
 Coeff:      0.314D-01-0.249D+00-0.226D+00 0.461D+00 0.882D+00
 Gap=     0.230 Goal=   None    Shift=    0.000
 RMSDP=1.67D-05 MaxDP=6.94D-04 DE=-2.12D-05 OVMax= 2.88D-03

 Cycle  12  Pass 0  IDiag  1:
 RMSU=  1.16D-05    CP:  9.51D-01  1.41D+00  8.62D-01  1.03D+00  2.10D+00
                    CP:  3.00D+00  3.00D+00  3.00D+00  3.00D+00  3.00D+00
                    CP:  1.29D+00
 E= -1490.95769139407     Delta-E=       -0.000001561231 Rises=F Damp=F
 DIIS: error= 7.36D-06 at cycle  12 NSaved=  12.
 NSaved=12 IEnMin=12 EnMin= -1490.95769139407     IErMin=12 ErrMin= 7.36D-06
 ErrMax= 7.36D-06  0.00D+00 EMaxC= 1.00D-01 BMatC= 3.53D-08 BMatP= 1.51D-07
 IDIUse=1 WtCom= 1.00D+00 WtEn= 0.00D+00
 Coeff-Com:  0.194D-03-0.329D-03-0.144D-02-0.414D-02-0.663D-03 0.217D-01
 Coeff-Com:  0.344D-01 0.242D-01-0.109D+00-0.148D+00 0.343D+00 0.840D+00
 Coeff:      0.194D-03-0.329D-03-0.144D-02-0.414D-02-0.663D-03 0.217D-01
 Coeff:      0.344D-01 0.242D-01-0.109D+00-0.148D+00 0.343D+00 0.840D+00
 Gap=     0.230 Goal=   None    Shift=    0.000
 RMSDP=4.99D-06 MaxDP=2.17D-04 DE=-1.56D-06 OVMax= 8.18D-04

 Initial convergence to 1.0D-05 achieved.  Increase integral accuracy.
 Cycle  13  Pass 1  IDiag  1:
 E= -1490.95767989712     Delta-E=        0.000011496946 Rises=F Damp=F
 DIIS: error= 6.56D-05 at cycle   1 NSaved=   1.
 NSaved= 1 IEnMin= 1 EnMin= -1490.95767989712     IErMin= 1 ErrMin= 6.56D-05
 ErrMax= 6.56D-05  0.00D+00 EMaxC= 1.00D-01 BMatC= 1.10D-06 BMatP= 1.10D-06
 IDIUse=1 WtCom= 1.00D+00 WtEn= 0.00D+00
 Coeff-Com:  0.100D+01
 Coeff:      0.100D+01
 Gap=     0.230 Goal=   None    Shift=    0.000
 RMSDP=4.99D-06 MaxDP=2.17D-04 DE= 1.15D-05 OVMax= 1.37D-04

 Cycle  14  Pass 1  IDiag  1:
 RMSU=  9.14D-05    CP:  1.00D+00
 E= -1490.95768093371     Delta-E=       -0.000001036584 Rises=F Damp=F
 DIIS: error= 3.61D-06 at cycle   2 NSaved=   2.
 NSaved= 2 IEnMin= 2 EnMin= -1490.95768093371     IErMin= 2 ErrMin= 3.61D-06
 ErrMax= 3.61D-06  0.00D+00 EMaxC= 1.00D-01 BMatC= 1.66D-08 BMatP= 1.10D-06
 IDIUse=1 WtCom= 1.00D+00 WtEn= 0.00D+00
 Coeff-Com: -0.314D-01 0.103D+01
 Coeff:     -0.314D-01 0.103D+01
 Gap=     0.230 Goal=   None    Shift=    0.000
 RMSDP=5.26D-06 MaxDP=1.11D-04 DE=-1.04D-06 OVMax= 5.82D-05

 Cycle  15  Pass 1  IDiag  1:
 RMSU=  1.98D-06    CP:  1.00D+00  1.05D+00
 E= -1490.95768094832     Delta-E=       -0.000000014612 Rises=F Damp=F
 DIIS: error= 3.48D-06 at cycle   3 NSaved=   3.
 NSaved= 3 IEnMin= 3 EnMin= -1490.95768094832     IErMin= 3 ErrMin= 3.48D-06
 ErrMax= 3.48D-06  0.00D+00 EMaxC= 1.00D-01 BMatC= 1.07D-08 BMatP= 1.66D-08
 IDIUse=1 WtCom= 1.00D+00 WtEn= 0.00D+00
 Coeff-Com: -0.267D-01 0.465D+00 0.561D+00
 Coeff:     -0.267D-01 0.465D+00 0.561D+00
 Gap=     0.230 Goal=   None    Shift=    0.000
 RMSDP=6.08D-07 MaxDP=1.59D-05 DE=-1.46D-08 OVMax= 2.47D-05

 Cycle  16  Pass 1  IDiag  1:
 RMSU=  5.62D-07    CP:  1.00D+00  1.05D+00  9.10D-01
 E= -1490.95768095941     Delta-E=       -0.000000011087 Rises=F Damp=F
 DIIS: error= 8.98D-07 at cycle   4 NSaved=   4.
 NSaved= 4 IEnMin= 4 EnMin= -1490.95768095941     IErMin= 4 ErrMin= 8.98D-07
 ErrMax= 8.98D-07  0.00D+00 EMaxC= 1.00D-01 BMatC= 6.36D-10 BMatP= 1.07D-08
 IDIUse=1 WtCom= 1.00D+00 WtEn= 0.00D+00
 Coeff-Com: -0.581D-02 0.567D-01 0.184D+00 0.765D+00
 Coeff:     -0.581D-02 0.567D-01 0.184D+00 0.765D+00
 Gap=     0.230 Goal=   None    Shift=    0.000
 RMSDP=2.32D-07 MaxDP=5.87D-06 DE=-1.11D-08 OVMax= 2.37D-05

 Cycle  17  Pass 1  IDiag  1:
 RMSU=  1.90D-07    CP:  1.00D+00  1.06D+00  9.73D-01  1.05D+00
 E= -1490.95768096078     Delta-E=       -0.000000001377 Rises=F Damp=F
 DIIS: error= 5.22D-07 at cycle   5 NSaved=   5.
 NSaved= 5 IEnMin= 5 EnMin= -1490.95768096078     IErMin= 5 ErrMin= 5.22D-07
 ErrMax= 5.22D-07  0.00D+00 EMaxC= 1.00D-01 BMatC= 1.35D-10 BMatP= 6.36D-10
 IDIUse=1 WtCom= 1.00D+00 WtEn= 0.00D+00
 Coeff-Com:  0.224D-02-0.558D-01-0.331D-01 0.259D+00 0.828D+00
 Coeff:      0.224D-02-0.558D-01-0.331D-01 0.259D+00 0.828D+00
 Gap=     0.230 Goal=   None    Shift=    0.000
 RMSDP=1.53D-07 MaxDP=5.43D-06 DE=-1.38D-09 OVMax= 2.24D-05

 Cycle  18  Pass 1  IDiag  1:
 RMSU=  1.07D-07    CP:  1.00D+00  1.06D+00  1.00D+00  1.17D+00  1.34D+00
 E= -1490.95768096138     Delta-E=       -0.000000000598 Rises=F Damp=F
 DIIS: error= 4.41D-07 at cycle   6 NSaved=   6.
 NSaved= 6 IEnMin= 6 EnMin= -1490.95768096138     IErMin= 6 ErrMin= 4.41D-07
 ErrMax= 4.41D-07  0.00D+00 EMaxC= 1.00D-01 BMatC= 4.65D-11 BMatP= 1.35D-10
 IDIUse=1 WtCom= 1.00D+00 WtEn= 0.00D+00
 Coeff-Com:  0.196D-02-0.345D-01-0.453D-01-0.684D-02 0.354D+00 0.731D+00
 Coeff:      0.196D-02-0.345D-01-0.453D-01-0.684D-02 0.354D+00 0.731D+00
 Gap=     0.230 Goal=   None    Shift=    0.000
 RMSDP=9.93D-08 MaxDP=4.00D-06 DE=-5.98D-10 OVMax= 1.65D-05

 Cycle  19  Pass 1  IDiag  1:
 RMSU=  4.54D-08    CP:  1.00D+00  1.06D+00  1.01D+00  1.24D+00  1.64D+00
                    CP:  1.52D+00
 E= -1490.95768096168     Delta-E=       -0.000000000299 Rises=F Damp=F
 DIIS: error= 3.54D-07 at cycle   7 NSaved=   7.
 NSaved= 7 IEnMin= 7 EnMin= -1490.95768096168     IErMin= 7 ErrMin= 3.54D-07
 ErrMax= 3.54D-07  0.00D+00 EMaxC= 1.00D-01 BMatC= 2.00D-11 BMatP= 4.65D-11
 IDIUse=1 WtCom= 1.00D+00 WtEn= 0.00D+00
 Coeff-Com: -0.390D-03 0.148D-01 0.127D-02-0.121D+00-0.286D+00 0.227D+00
 Coeff-Com:  0.116D+01
 Coeff:     -0.390D-03 0.148D-01 0.127D-02-0.121D+00-0.286D+00 0.227D+00
 Coeff:      0.116D+01
 Gap=     0.230 Goal=   None    Shift=    0.000
 RMSDP=1.39D-07 MaxDP=5.71D-06 DE=-2.99D-10 OVMax= 2.42D-05

 Cycle  20  Pass 1  IDiag  1:
 RMSU=  3.80D-08    CP:  1.00D+00  1.06D+00  1.02D+00  1.30D+00  2.05D+00
                    CP:  2.40D+00  1.87D+00
 E= -1490.95768096197     Delta-E=       -0.000000000296 Rises=F Damp=F
 DIIS: error= 2.69D-07 at cycle   8 NSaved=   8.
 NSaved= 8 IEnMin= 8 EnMin= -1490.95768096197     IErMin= 8 ErrMin= 2.69D-07
 ErrMax= 2.69D-07  0.00D+00 EMaxC= 1.00D-01 BMatC= 9.30D-12 BMatP= 2.00D-11
 IDIUse=1 WtCom= 1.00D+00 WtEn= 0.00D+00
 Coeff-Com: -0.105D-02 0.221D-01 0.199D-01-0.532D-01-0.286D+00-0.209D+00
 Coeff-Com:  0.524D+00 0.983D+00
 Coeff:     -0.105D-02 0.221D-01 0.199D-01-0.532D-01-0.286D+00-0.209D+00
 Coeff:      0.524D+00 0.983D+00
 Gap=     0.230 Goal=   None    Shift=    0.000
 RMSDP=1.13D-07 MaxDP=4.56D-06 DE=-2.96D-10 OVMax= 1.99D-05

 Cycle  21  Pass 1  IDiag  1:
 RMSU=  2.29D-08    CP:  1.00D+00  1.06D+00  1.02D+00  1.35D+00  2.34D+00
                    CP:  3.00D+00  2.85D+00  1.79D+00
 E= -1490.95768096211     Delta-E=       -0.000000000131 Rises=F Damp=F
 DIIS: error= 1.59D-07 at cycle   9 NSaved=   9.
 NSaved= 9 IEnMin= 9 EnMin= -1490.95768096211     IErMin= 9 ErrMin= 1.59D-07
 ErrMax= 1.59D-07  0.00D+00 EMaxC= 1.00D-01 BMatC= 3.36D-12 BMatP= 9.30D-12
 IDIUse=1 WtCom= 1.00D+00 WtEn= 0.00D+00
 Coeff-Com: -0.251D-04-0.328D-02 0.242D-02 0.553D-01 0.105D+00-0.143D+00
 Coeff-Com: -0.577D+00 0.179D+00 0.138D+01
 Coeff:     -0.251D-04-0.328D-02 0.242D-02 0.553D-01 0.105D+00-0.143D+00
 Coeff:     -0.577D+00 0.179D+00 0.138D+01
 Gap=     0.230 Goal=   None    Shift=    0.000
 RMSDP=1.08D-07 MaxDP=4.19D-06 DE=-1.31D-10 OVMax= 1.91D-05

 Cycle  22  Pass 1  IDiag  1:
 RMSU=  6.68D-08    CP:  1.00D+00  1.06D+00  1.03D+00  1.39D+00  2.58D+00
                    CP:  3.00D+00  3.00D+00  2.95D+00  2.89D+00
 E= -1490.95768096223     Delta-E=       -0.000000000126 Rises=F Damp=F
 DIIS: error= 6.38D-08 at cycle  10 NSaved=  10.
 NSaved=10 IEnMin=10 EnMin= -1490.95768096223     IErMin=10 ErrMin= 6.38D-08
 ErrMax= 6.38D-08  0.00D+00 EMaxC= 1.00D-01 BMatC= 8.35D-13 BMatP= 3.36D-12
 IDIUse=1 WtCom= 1.00D+00 WtEn= 0.00D+00
 Coeff-Com:  0.332D-03-0.838D-02-0.609D-02 0.362D-01 0.130D+00 0.211D-01
 Coeff-Com: -0.382D+00-0.257D+00 0.509D+00 0.957D+00
 Coeff:      0.332D-03-0.838D-02-0.609D-02 0.362D-01 0.130D+00 0.211D-01
 Coeff:     -0.382D+00-0.257D+00 0.509D+00 0.957D+00
 Gap=     0.230 Goal=   None    Shift=    0.000
 RMSDP=4.70D-08 MaxDP=1.82D-06 DE=-1.26D-10 OVMax= 8.39D-06

 Cycle  23  Pass 1  IDiag  1:
 RMSU=  2.81D-08    CP:  1.00D+00  1.06D+00  1.03D+00  1.40D+00  2.69D+00
                    CP:  3.00D+00  3.00D+00  3.00D+00  3.00D+00  1.41D+00
 E= -1490.95768096220     Delta-E=        0.000000000031 Rises=F Damp=F
 DIIS: error= 1.77D-08 at cycle  11 NSaved=  11.
 NSaved=11 IEnMin=10 EnMin= -1490.95768096223     IErMin=11 ErrMin= 1.77D-08
 ErrMax= 1.77D-08  0.00D+00 EMaxC= 1.00D-01 BMatC= 1.08D-13 BMatP= 8.35D-13
 IDIUse=1 WtCom= 1.00D+00 WtEn= 0.00D+00
 Coeff-Com:  0.605D-04-0.669D-03-0.165D-02-0.531D-02-0.920D-03 0.358D-01
 Coeff-Com:  0.616D-01-0.855D-01-0.220D+00 0.167D+00 0.105D+01
 Coeff:      0.605D-04-0.669D-03-0.165D-02-0.531D-02-0.920D-03 0.358D-01
 Coeff:      0.616D-01-0.855D-01-0.220D+00 0.167D+00 0.105D+01
 Gap=     0.230 Goal=   None    Shift=    0.000
 RMSDP=1.44D-08 MaxDP=5.33D-07 DE= 3.09D-11 OVMax= 2.53D-06

 Cycle  24  Pass 1  IDiag  1:
 RMSU=  3.65D-09    CP:  1.00D+00  1.06D+00  1.03D+00  1.41D+00  2.71D+00
                    CP:  3.00D+00  3.00D+00  3.00D+00  3.00D+00  1.53D+00
                    CP:  1.35D+00
 E= -1490.95768096218     Delta-E=        0.000000000018 Rises=F Damp=F
 DIIS: error= 6.73D-09 at cycle  12 NSaved=  12.
 NSaved=12 IEnMin=10 EnMin= -1490.95768096223     IErMin=12 ErrMin= 6.73D-09
 ErrMax= 6.73D-09  0.00D+00 EMaxC= 1.00D-01 BMatC= 1.55D-14 BMatP= 1.08D-13
 IDIUse=1 WtCom= 1.00D+00 WtEn= 0.00D+00
 Coeff-Com: -0.243D-04 0.858D-03 0.220D-03-0.605D-02-0.169D-01 0.687D-02
 Coeff-Com:  0.664D-01 0.837D-02-0.127D+00-0.719D-01 0.302D+00 0.837D+00
 Coeff:     -0.243D-04 0.858D-03 0.220D-03-0.605D-02-0.169D-01 0.687D-02
 Coeff:      0.664D-01 0.837D-02-0.127D+00-0.719D-01 0.302D+00 0.837D+00
 Gap=     0.230 Goal=   None    Shift=    0.000
 RMSDP=2.69D-09 MaxDP=8.95D-08 DE= 1.77D-11 OVMax= 4.38D-07

 SCF Done:  E(RwB97XD) =  -1490.95768096     A.U. after   24 cycles
            NFock= 24  Conv=0.27D-08     -V/T= 2.0054
 KE= 1.482929519919D+03 PE=-5.892961643418D+03 EE= 1.727788018258D+03
 Leave Link  502 at Fri Mar  6 16:25:48 2026, MaxMem=  2415919104 cpu:             268.1 elap:              26.8
 (Enter /prod/precompiled/gaussian/16c2/g16/l508.exe)
 QCSCF skips out because SCF is already converged.
 Leave Link  508 at Fri Mar  6 16:25:48 2026, MaxMem=  2415919104 cpu:               0.1 elap:               0.0
 (Enter /prod/precompiled/gaussian/16c2/g16/l801.exe)
 DoSCS=F DFT=T ScalE2(SS,OS)=  1.000000  1.000000
 Range of M.O.s used for correlation:     1   272
 NBasis=   272 NAE=    64 NBE=    64 NFC=     0 NFV=     0
 NROrb=    272 NOA=    64 NOB=    64 NVA=   208 NVB=   208

 **** Warning!!: The largest alpha MO coefficient is  0.14204924D+02

 Leave Link  801 at Fri Mar  6 16:25:48 2026, MaxMem=  2415919104 cpu:               0.1 elap:               0.1
 (Enter /prod/precompiled/gaussian/16c2/g16/l1101.exe)
 Using compressed storage, NAtomX=    24.
 Will process     25 centers per pass.
   1 Symmetry operations used in ECPInt.
 ECPInt:  NShTT=    7750 NPrTT=   30142 LenC2=    7029 LenP2D=   19099.
 LDataN:  DoStor=T MaxTD1= 5 Len=  102
 R6Disp: Adding Grimme-D2 dispersion energy 1st derivatives to the gradient.
 Leave Link 1101 at Fri Mar  6 16:25:49 2026, MaxMem=  2415919104 cpu:               2.5 elap:               0.5
 (Enter /prod/precompiled/gaussian/16c2/g16/l1102.exe)
 Symmetrizing basis deriv contribution to polar:
 IMax=3 JMax=2 DiffMx= 0.00D+00
 Leave Link 1102 at Fri Mar  6 16:25:49 2026, MaxMem=  2415919104 cpu:               0.2 elap:               0.1
 (Enter /prod/precompiled/gaussian/16c2/g16/l1110.exe)
 Forming Gx(P) for the SCF density, NAtomX=    24.
 Integral derivatives from FoFJK, PRISM(SPDF).
 Do as many integral derivatives as possible in FoFJK.
 G2DrvN: MDV=    2415916544.
 G2DrvN: will do    25 centers at a time, making    1 passes.
 Calling FoFCou, ICntrl=  3107 FMM=F I1Cent=   0 AccDes= 0.00D+00.
 FoFJK:  IHMeth= 1 ICntrl=    3107 DoSepK=T KAlg= 0 I1Cent=           0 FoldK=F
 IRaf=         1 NMat=       1 IRICut=       1 DoRegI=T DoRafI=F ISym2E= 0 IDoP0=0 IntGTp=1.
 FoFCou: FMM=F IPFlag=           0 FMFlag=      100000 FMFlg1=           0
         NFxFlg=           0 DoJE=F BraDBF=F KetDBF=F FulRan=T
         wScrn=  0.000000 ICntrl=      3507 IOpCl=  0 I1Cent=           0 NGrid=           0
         NMat0=    1 NMatS0=      1 NMatT0=    0 NMatD0=    1 NMtDS0=    0 NMtDT0=    0
 Symmetry not used in FoFCou.
 End of G2Drv F.D. properties file   721 does not exist.
 End of G2Drv F.D. properties file   722 does not exist.
 End of G2Drv F.D. properties file   788 does not exist.
 Leave Link 1110 at Fri Mar  6 16:26:10 2026, MaxMem=  2415919104 cpu:             243.8 elap:              21.4
 (Enter /prod/precompiled/gaussian/16c2/g16/l1002.exe)
 Minotr:  Closed shell wavefunction.
          IDoAtm=111111111111111111111111
          Direct CPHF calculation.
          Differentiating once with respect to electric field.
                with respect to dipole field.
          Differentiating once with respect to nuclear coordinates.
          Requested convergence is 1.0D-08 RMS, and 1.0D-07 maximum.
          Secondary convergence is 1.0D-12 RMS, and 1.0D-12 maximum.
          NewPWx=T KeepS1=F KeepF1=F KeepIn=T MapXYZ=F SortEE=F KeepMc=T.
         7195 words used for storage of precomputed grid.
 Keep R1 ints in memory in canonical form, NReq=1402150885.
 FoFCou: FMM=F IPFlag=           0 FMFlag=           0 FMFlg1=           0
         NFxFlg=           0 DoJE=F BraDBF=F KetDBF=F FulRan=T
         wScrn=  0.000000 ICntrl=       600 IOpCl=  0 I1Cent=           0 NGrid=           0
         NMat0=    1 NMatS0=  37128 NMatT0=    0 NMatD0=    1 NMtDS0=    0 NMtDT0=    0
 Symmetry not used in FoFCou.
 Two-electron integral symmetry not used.
          MDV=    2415919104 using IRadAn=       1.
          Solving linear equations simultaneously, MaxMat=       0.
          There are    75 degrees of freedom in the 1st order CPHF.  IDoFFX=6 NUNeed=     3.
     72 vectors produced by pass  0 Test12= 1.77D-14 1.33D-09 XBig12= 1.24D+02 4.03D+00.
 AX will form    72 AO Fock derivatives at one time.
     72 vectors produced by pass  1 Test12= 1.77D-14 1.33D-09 XBig12= 1.19D+01 5.09D-01.
     72 vectors produced by pass  2 Test12= 1.77D-14 1.33D-09 XBig12= 4.87D-01 1.13D-01.
     72 vectors produced by pass  3 Test12= 1.77D-14 1.33D-09 XBig12= 8.37D-03 1.10D-02.
     72 vectors produced by pass  4 Test12= 1.77D-14 1.33D-09 XBig12= 8.85D-05 1.41D-03.
     72 vectors produced by pass  5 Test12= 1.77D-14 1.33D-09 XBig12= 5.56D-07 8.63D-05.
     67 vectors produced by pass  6 Test12= 1.77D-14 1.33D-09 XBig12= 3.31D-09 4.81D-06.
     39 vectors produced by pass  7 Test12= 1.77D-14 1.33D-09 XBig12= 1.61D-11 3.18D-07.
      3 vectors produced by pass  8 Test12= 1.77D-14 1.33D-09 XBig12= 7.55D-14 2.72D-08.
      1 vectors produced by pass  9 Test12= 1.77D-14 1.33D-09 XBig12= 3.80D-16 2.49D-09.
 InvSVY:  IOpt=1 It=  1 EMax= 4.44D-15
 Solved reduced A of dimension   542 with    75 vectors.
 FullF1:  Do perturbations      1 to       3.
 Isotropic polarizability for W=    0.000000      169.19 Bohr**3.
 End of Minotr F.D. properties file   721 does not exist.
 End of Minotr F.D. properties file   722 does not exist.
 End of Minotr F.D. properties file   788 does not exist.
 Leave Link 1002 at Fri Mar  6 16:26:47 2026, MaxMem=  2415919104 cpu:             361.2 elap:              36.6
 (Enter /prod/precompiled/gaussian/16c2/g16/l601.exe)
 Copying SCF densities to generalized density rwf, IOpCl= 0 IROHF=0.

 **********************************************************************

            Population analysis using the SCF Density.

 **********************************************************************

 Alpha  occ. eigenvalues -- -101.68481-101.68287 -14.50967 -14.47631 -10.38977
 Alpha  occ. eigenvalues --  -10.38245 -10.36785 -10.33941 -10.33128 -10.32952
 Alpha  occ. eigenvalues --  -10.32809 -10.32254 -10.31975 -10.31729 -10.31604
 Alpha  occ. eigenvalues --  -10.31487  -9.59260  -9.59067  -7.34666  -7.34451
 Alpha  occ. eigenvalues --   -7.33677  -7.33613  -7.33485  -7.33439  -1.11846
 Alpha  occ. eigenvalues --   -1.00702  -0.99261  -0.94834  -0.93989  -0.90717
 Alpha  occ. eigenvalues --   -0.85992  -0.84072  -0.83150  -0.78295  -0.72492
 Alpha  occ. eigenvalues --   -0.71759  -0.70876  -0.67069  -0.64125  -0.60273
 Alpha  occ. eigenvalues --   -0.58977  -0.58498  -0.57281  -0.54923  -0.54079
 Alpha  occ. eigenvalues --   -0.52832  -0.52377  -0.51963  -0.51059  -0.47825
 Alpha  occ. eigenvalues --   -0.47453  -0.47064  -0.46550  -0.45436  -0.44076
 Alpha  occ. eigenvalues --   -0.42880  -0.42315  -0.39724  -0.39715  -0.36045
 Alpha  occ. eigenvalues --   -0.33703  -0.33243  -0.32132  -0.25698
 Alpha virt. eigenvalues --   -0.02725   0.03671   0.04462   0.05277   0.09892
 Alpha virt. eigenvalues --    0.10374   0.11832   0.15617   0.16382   0.17285
 Alpha virt. eigenvalues --    0.18510   0.20495   0.21557   0.21749   0.22129
 Alpha virt. eigenvalues --    0.22331   0.23012   0.24005   0.29910   0.32597
 Alpha virt. eigenvalues --    0.33720   0.34741   0.34986   0.35453   0.36640
 Alpha virt. eigenvalues --    0.37210   0.38128   0.39059   0.43008   0.44102
 Alpha virt. eigenvalues --    0.45571   0.46903   0.48388   0.49534   0.50895
 Alpha virt. eigenvalues --    0.51059   0.51459   0.52057   0.53507   0.53699
 Alpha virt. eigenvalues --    0.54606   0.55687   0.56749   0.57384   0.58447
 Alpha virt. eigenvalues --    0.59779   0.60622   0.60647   0.62003   0.62968
 Alpha virt. eigenvalues --    0.64079   0.65857   0.66419   0.66970   0.67522
 Alpha virt. eigenvalues --    0.69215   0.70237   0.70664   0.71523   0.73110
 Alpha virt. eigenvalues --    0.73289   0.73352   0.74174   0.75431   0.75642
 Alpha virt. eigenvalues --    0.76648   0.77504   0.78190   0.78745   0.79211
 Alpha virt. eigenvalues --    0.79670   0.79906   0.81392   0.82434   0.83751
 Alpha virt. eigenvalues --    0.84076   0.85936   0.86782   0.86992   0.87724
 Alpha virt. eigenvalues --    0.88477   0.89295   0.89897   0.90462   0.91649
 Alpha virt. eigenvalues --    0.92655   0.93533   0.94441   0.95438   0.97052
 Alpha virt. eigenvalues --    0.99224   1.02248   1.03923   1.05229   1.06409
 Alpha virt. eigenvalues --    1.09260   1.10810   1.14816   1.15238   1.18489
 Alpha virt. eigenvalues --    1.19285   1.21243   1.23388   1.25547   1.27682
 Alpha virt. eigenvalues --    1.29692   1.31067   1.32327   1.32730   1.33564
 Alpha virt. eigenvalues --    1.33952   1.34302   1.35649   1.35987   1.37381
 Alpha virt. eigenvalues --    1.38143   1.40732   1.45967   1.49214   1.52146
 Alpha virt. eigenvalues --    1.56087   1.57560   1.58336   1.59404   1.64811
 Alpha virt. eigenvalues --    1.66524   1.73102   1.74423   1.77083   1.77741
 Alpha virt. eigenvalues --    1.78192   1.78973   1.80214   1.81135   1.82966
 Alpha virt. eigenvalues --    1.83210   1.84072   1.84941   1.85503   1.86562
 Alpha virt. eigenvalues --    1.88441   1.89362   1.90588   1.92214   1.94054
 Alpha virt. eigenvalues --    1.97435   1.98260   1.99813   2.01277   2.01656
 Alpha virt. eigenvalues --    2.02628   2.02890   2.07481   2.08413   2.08864
 Alpha virt. eigenvalues --    2.11654   2.13368   2.15573   2.17888   2.21294
 Alpha virt. eigenvalues --    2.21590   2.22498   2.22990   2.26113   2.30340
 Alpha virt. eigenvalues --    2.31107   2.31361   2.32509   2.33752   2.35281
 Alpha virt. eigenvalues --    2.35608   2.36273   2.36641   2.37989   2.38904
 Alpha virt. eigenvalues --    2.40111   2.46735   2.49201   2.52442   2.56433
 Alpha virt. eigenvalues --    2.58688   2.65016   2.66917   2.67602   2.69411
 Alpha virt. eigenvalues --    2.69766   2.70307   2.76660   2.80271   2.81029
 Alpha virt. eigenvalues --    2.82464   2.86591   2.89096   2.89900   2.90438
 Alpha virt. eigenvalues --    2.94028   2.98123   3.03418   3.07218   3.11009
 Alpha virt. eigenvalues --    3.13179   3.16337   3.21218   3.27782   3.44263
 Alpha virt. eigenvalues --    3.57013   3.66165   3.80451
          Condensed to atoms (all electrons):
               1          2          3          4          5          6
     1  C    5.036477   0.199529  -0.038334   0.077118  -0.138474   0.109557
     2  C    0.199529   5.341071   0.245083   0.336999   0.084569  -0.134731
     3  Cl  -0.038334   0.245083  16.894457  -0.059247   0.003122   0.000515
     4  C    0.077118   0.336999  -0.059247   4.977125   0.312157   0.070219
     5  C   -0.138474   0.084569   0.003122   0.312157   5.044692   0.260178
     6  C    0.109557  -0.134731   0.000515   0.070219   0.260178   5.177491
     7  C    0.310542   0.002864   0.001821  -0.098070   0.085904   0.202542
     8  N    0.394113  -0.072787   0.003445   0.003722  -0.000518   0.012331
     9  N   -0.036463   0.000845  -0.000407   0.000006  -0.000001  -0.000147
    10  C   -0.001050  -0.000529   0.000031   0.000011   0.000004  -0.000092
    11  C    0.001526  -0.000021  -0.000002   0.000001  -0.000002   0.000077
    12  Cl   0.002261  -0.000590   0.000001  -0.000017  -0.000008  -0.000876
    13  C   -0.000030  -0.000005   0.000000   0.000000   0.000000  -0.000009
    14  C   -0.000006   0.000000   0.000000  -0.000000   0.000000  -0.000000
    15  C    0.000007  -0.000000  -0.000000   0.000000   0.000000  -0.000000
    16  C    0.000078   0.000016   0.000001  -0.000000  -0.000000   0.000002
    17  H    0.015536  -0.063264   0.001514   0.441664  -0.056391   0.013645
    18  H   -0.001929   0.013593  -0.000133  -0.060260   0.446428  -0.064002
    19  H    0.012688  -0.002448   0.000008   0.013190  -0.066471   0.442944
    20  H   -0.061984   0.018086  -0.000074  -0.002761   0.014444  -0.066387
    21  H    0.000004   0.000000  -0.000000  -0.000000  -0.000000   0.000001
    22  H    0.000000  -0.000000  -0.000000  -0.000000  -0.000000  -0.000000
    23  H   -0.000000   0.000000  -0.000000  -0.000000  -0.000000   0.000000
    24  H    0.000003   0.000013  -0.000000  -0.000000  -0.000000   0.000001
               7          8          9         10         11         12
     1  C    0.310542   0.394113  -0.036463  -0.001050   0.001526   0.002261
     2  C    0.002864  -0.072787   0.000845  -0.000529  -0.000021  -0.000590
     3  Cl   0.001821   0.003445  -0.000407   0.000031  -0.000002   0.000001
     4  C   -0.098070   0.003722   0.000006   0.000011   0.000001  -0.000017
     5  C    0.085904  -0.000518  -0.000001   0.000004  -0.000002  -0.000008
     6  C    0.202542   0.012331  -0.000147  -0.000092   0.000077  -0.000876
     7  C    5.185960  -0.089580   0.002247   0.002105  -0.000861   0.003135
     8  N   -0.089580   6.693639   0.342842  -0.094146  -0.010555   0.001278
     9  N    0.002247   0.342842   6.523629   0.351274  -0.065006  -0.003583
    10  C    0.002105  -0.094146   0.351274   5.146873   0.242995  -0.061914
    11  C   -0.000861  -0.010555  -0.065006   0.242995   5.288389   0.252125
    12  Cl   0.003135   0.001278  -0.003583  -0.061914   0.252125  16.930832
    13  C    0.000021  -0.001120   0.004463   0.077918   0.334595  -0.060741
    14  C    0.000002   0.000041  -0.000291  -0.135529   0.080981   0.002866
    15  C   -0.000005  -0.000383   0.006666   0.096093  -0.148104   0.000648
    16  C   -0.000019   0.002828  -0.072072   0.345226   0.052403   0.001348
    17  H   -0.002675  -0.000058   0.000001  -0.000000   0.000000   0.000000
    18  H    0.012260   0.000005  -0.000000   0.000000  -0.000000   0.000000
    19  H   -0.053662  -0.000177   0.000003   0.000002   0.000001  -0.000005
    20  H    0.451951  -0.008070  -0.000577  -0.000994  -0.000060   0.005954
    21  H   -0.000014   0.000032  -0.000076   0.015901  -0.066328   0.002020
    22  H    0.000000   0.000000   0.000006  -0.001744   0.013907  -0.000122
    23  H   -0.000000   0.000005  -0.000082   0.013210  -0.001652   0.000008
    24  H   -0.000035   0.000758   0.000138  -0.067511   0.019667  -0.000052
              13         14         15         16         17         18
     1  C   -0.000030  -0.000006   0.000007   0.000078   0.015536  -0.001929
     2  C   -0.000005   0.000000  -0.000000   0.000016  -0.063264   0.013593
     3  Cl   0.000000   0.000000  -0.000000   0.000001   0.001514  -0.000133
     4  C    0.000000  -0.000000   0.000000  -0.000000   0.441664  -0.060260
     5  C    0.000000   0.000000   0.000000  -0.000000  -0.056391   0.446428
     6  C   -0.000009  -0.000000  -0.000000   0.000002   0.013645  -0.064002
     7  C    0.000021   0.000002  -0.000005  -0.000019  -0.002675   0.012260
     8  N   -0.001120   0.000041  -0.000383   0.002828  -0.000058   0.000005
     9  N    0.004463  -0.000291   0.006666  -0.072072   0.000001  -0.000000
    10  C    0.077918  -0.135529   0.096093   0.345226  -0.000000   0.000000
    11  C    0.334595   0.080981  -0.148104   0.052403   0.000000  -0.000000
    12  Cl  -0.060741   0.002866   0.000648   0.001348   0.000000   0.000000
    13  C    4.975842   0.323197   0.073109  -0.105958  -0.000000   0.000000
    14  C    0.323197   5.048272   0.281761   0.071452  -0.000000  -0.000000
    15  C    0.073109   0.281761   5.073812   0.303350  -0.000000   0.000000
    16  C   -0.105958   0.071452   0.303350   5.032000  -0.000000   0.000000
    17  H   -0.000000  -0.000000  -0.000000  -0.000000   0.632063  -0.011547
    18  H    0.000000  -0.000000   0.000000   0.000000  -0.011547   0.639685
    19  H    0.000001  -0.000000  -0.000000  -0.000000  -0.000245  -0.010771
    20  H   -0.000319   0.000029   0.000001   0.000027   0.000004  -0.000196
    21  H    0.440236  -0.058024   0.013195  -0.002000   0.000000   0.000000
    22  H   -0.061177   0.446171  -0.065204   0.012443   0.000000   0.000000
    23  H    0.012772  -0.066255   0.448007  -0.061890   0.000000  -0.000000
    24  H   -0.002920   0.013518  -0.068476   0.442881   0.000000   0.000000
              19         20         21         22         23         24
     1  C    0.012688  -0.061984   0.000004   0.000000  -0.000000   0.000003
     2  C   -0.002448   0.018086   0.000000  -0.000000   0.000000   0.000013
     3  Cl   0.000008  -0.000074  -0.000000  -0.000000  -0.000000  -0.000000
     4  C    0.013190  -0.002761  -0.000000  -0.000000  -0.000000  -0.000000
     5  C   -0.066471   0.014444  -0.000000  -0.000000  -0.000000  -0.000000
     6  C    0.442944  -0.066387   0.000001  -0.000000   0.000000   0.000001
     7  C   -0.053662   0.451951  -0.000014   0.000000  -0.000000  -0.000035
     8  N   -0.000177  -0.008070   0.000032   0.000000   0.000005   0.000758
     9  N    0.000003  -0.000577  -0.000076   0.000006  -0.000082   0.000138
    10  C    0.000002  -0.000994   0.015901  -0.001744   0.013210  -0.067511
    11  C    0.000001  -0.000060  -0.066328   0.013907  -0.001652   0.019667
    12  Cl  -0.000005   0.005954   0.002020  -0.000122   0.000008  -0.000052
    13  C    0.000001  -0.000319   0.440236  -0.061177   0.012772  -0.002920
    14  C   -0.000000   0.000029  -0.058024   0.446171  -0.066255   0.013518
    15  C   -0.000000   0.000001   0.013195  -0.065204   0.448007  -0.068476
    16  C   -0.000000   0.000027  -0.002000   0.012443  -0.061890   0.442881
    17  H   -0.000245   0.000004   0.000000   0.000000   0.000000   0.000000
    18  H   -0.010771  -0.000196   0.000000   0.000000  -0.000000   0.000000
    19  H    0.645063  -0.012083  -0.000000   0.000000  -0.000000  -0.000000
    20  H   -0.012083   0.633790   0.000042  -0.000001   0.000000   0.000008
    21  H   -0.000000   0.000042   0.647112  -0.011821  -0.000214   0.000026
    22  H    0.000000  -0.000001  -0.011821   0.650106  -0.011000  -0.000213
    23  H   -0.000000   0.000000  -0.000214  -0.011000   0.649932  -0.010868
    24  H   -0.000000   0.000008   0.000026  -0.000213  -0.010868   0.652453
 Mulliken charges:
               1
     1  C    0.118831
     2  C    0.031707
     3  Cl  -0.051801
     4  C   -0.011859
     5  C    0.010367
     6  C   -0.023261
     7  C   -0.016435
     8  N   -0.177646
     9  N   -0.053416
    10  C    0.071867
    11  C    0.005924
    12  Cl  -0.074566
    13  C   -0.009875
    14  C   -0.008184
    15  C   -0.014477
    16  C   -0.022116
    17  H    0.029752
    18  H    0.036866
    19  H    0.031961
    20  H    0.029168
    21  H    0.019907
    22  H    0.028650
    23  H    0.028028
    24  H    0.020607
 Sum of Mulliken charges =  -0.00000
 Mulliken charges with hydrogens summed into heavy atoms:
               1
     1  C    0.118831
     2  C    0.031707
     3  Cl  -0.051801
     4  C    0.017894
     5  C    0.047233
     6  C    0.008700
     7  C    0.012733
     8  N   -0.177646
     9  N   -0.053416
    10  C    0.071867
    11  C    0.005924
    12  Cl  -0.074566
    13  C    0.010032
    14  C    0.020466
    15  C    0.013551
    16  C   -0.001509
 APT charges:
               1
     1  C    0.241373
     2  C    0.437510
     3  Cl  -0.291543
     4  C   -0.198299
     5  C    0.082398
     6  C   -0.156481
     7  C   -0.031320
     8  N   -0.322782
     9  N   -0.018199
    10  C    0.062039
    11  C    0.262688
    12  Cl  -0.262486
    13  C   -0.102378
    14  C   -0.037994
    15  C   -0.049244
    16  C   -0.028604
    17  H    0.063308
    18  H    0.046332
    19  H    0.040913
    20  H    0.064113
    21  H    0.056205
    22  H    0.039396
    23  H    0.035227
    24  H    0.067831
 Sum of APT charges =   0.00000
 APT charges with hydrogens summed into heavy atoms:
               1
     1  C    0.241373
     2  C    0.437510
     3  Cl  -0.291543
     4  C   -0.134992
     5  C    0.128730
     6  C   -0.115568
     7  C    0.032793
     8  N   -0.322782
     9  N   -0.018199
    10  C    0.062039
    11  C    0.262688
    12  Cl  -0.262486
    13  C   -0.046173
    14  C    0.001402
    15  C   -0.014017
    16  C    0.039227
 Electronic spatial extent (au):  <R**2>=           5351.5068
 Charge=             -0.0000 electrons
 Dipole moment (field-independent basis, Debye):
    X=              1.7774    Y=             -2.8318    Z=             -0.8985  Tot=              3.4620
 Quadrupole moment (field-independent basis, Debye-Ang):
   XX=            -85.2658   YY=            -96.5341   ZZ=           -106.2420
   XY=              5.1962   XZ=              2.7622   YZ=             -0.1989
 Traceless Quadrupole moment (field-independent basis, Debye-Ang):
   XX=             10.7481   YY=             -0.5201   ZZ=            -10.2280
   XY=              5.1962   XZ=              2.7622   YZ=             -0.1989
 Octapole moment (field-independent basis, Debye-Ang**2):
  XXX=             -5.3792  YYY=            212.9153  ZZZ=           -100.8527  XYY=            -39.1862
  XXY=             51.5355  XXZ=            -48.8938  XZZ=            -30.5379  YZZ=             83.9304
  YYZ=            -24.1571  XYZ=             -0.6959
 Hexadecapole moment (field-independent basis, Debye-Ang**3):
 XXXX=          -3467.8520 YYYY=          -2501.4282 ZZZZ=           -663.1679 XXXY=           -773.8330
 XXXZ=             99.7970 YYYX=           -751.1891 YYYZ=            183.5314 ZZZX=             54.1983
 ZZZY=            235.1126 XXYY=           -945.5559 XXZZ=           -780.1508 YYZZ=           -555.9047
 XXYZ=            101.3975 YYXZ=             -4.0031 ZZXY=           -281.4089
 N-N= 1.191286424278D+03 E-N=-5.892961642163D+03  KE= 1.482929519919D+03
  Exact polarizability:     228.623      44.995     177.086      16.536     -11.208     101.868
 Approx polarizability:     231.715      23.169     204.583      24.230     -12.365     128.757
 No NMR shielding tensors so no spin-rotation constants.
 Leave Link  601 at Fri Mar  6 16:26:49 2026, MaxMem=  2415919104 cpu:               1.1 elap:               0.8
 (Enter /prod/precompiled/gaussian/16c2/g16/l701.exe)
 ... and contract with generalized density number  0.
 Compute integral second derivatives.
 R6Disp: Adding Grimme-D2 dispersion energy 2nd derivatives to the Hessian.
   1 Symmetry operations used in ECPInt.
 ECPInt:  NShTT=    7750 NPrTT=   30142 LenC2=    7029 LenP2D=   19099.
 LDataN:  DoStor=T MaxTD1= 6 Len=  172
 Leave Link  701 at Fri Mar  6 16:26:49 2026, MaxMem=  2415919104 cpu:               1.3 elap:               0.3
 (Enter /prod/precompiled/gaussian/16c2/g16/l702.exe)
 L702 exits ... SP integral derivatives will be done elsewhere.
 Leave Link  702 at Fri Mar  6 16:26:49 2026, MaxMem=  2415919104 cpu:               0.1 elap:               0.1
 (Enter /prod/precompiled/gaussian/16c2/g16/l703.exe)
 Integral derivatives from FoFJK, PRISM(SPDF).
 Compute integral second derivatives, UseDBF=F ICtDFT=           0.
 Calling FoFJK, ICntrl=    100127 FMM=F ISym2X=0 I1Cent= 0 IOpClX= 0 NMat=1 NMatS=1 NMatT=0.
 FoFJK:  IHMeth= 1 ICntrl=  100127 DoSepK=T KAlg= 0 I1Cent=           0 FoldK=F
 IRaf=         1 NMat=       1 IRICut=       1 DoRegI=T DoRafI=F ISym2E= 0 IDoP0=0 IntGTp=1.
 FoFCou: FMM=F IPFlag=           0 FMFlag=      100000 FMFlg1=         800
         NFxFlg=           0 DoJE=F BraDBF=F KetDBF=F FulRan=T
         wScrn=  0.000000 ICntrl=    100527 IOpCl=  0 I1Cent=           0 NGrid=           0
         NMat0=    1 NMatS0=      1 NMatT0=    0 NMatD0=    1 NMtDS0=    0 NMtDT0=    0
 Symmetry not used in FoFCou.
 Leave Link  703 at Fri Mar  6 16:27:29 2026, MaxMem=  2415919104 cpu:             474.4 elap:              40.5
 (Enter /prod/precompiled/gaussian/16c2/g16/l716.exe)
 Dipole        = 6.99291029D-01-1.11412770D+00-3.53480338D-01
 Polarizability= 2.28622526D+02 4.49946563D+01 1.77086002D+02
                 1.65356840D+01-1.12080638D+01 1.01867714D+02
 -------------------------------------------------------------------
 Center     Atomic                   Forces (Hartrees/Bohr)
 Number     Number              X              Y              Z
 -------------------------------------------------------------------
      1        6          -0.050458855   -0.017561165   -0.000338855
      2        6           0.010041495    0.012058540   -0.000538288
      3       17          -0.010386702   -0.005757733    0.000344777
      4        6          -0.005502474   -0.005226053    0.000224356
      5        6          -0.005703784    0.003331494    0.000566124
      6        6          -0.012660534   -0.001381950   -0.000536935
      7        6           0.018792459   -0.003187622   -0.001533599
      8        7           0.043923505    0.014526850    0.004042161
      9        7           0.027403293    0.014674065   -0.008419999
     10        6          -0.019313743   -0.017670724    0.002032499
     11        6          -0.006947807   -0.010752927   -0.003290689
     12       17           0.005116279    0.003630796    0.003316196
     13        6          -0.002692368    0.004472923   -0.005553590
     14        6           0.004767558    0.001888558    0.003316807
     15        6           0.007813311    0.009739766   -0.001321329
     16        6          -0.004110185   -0.008298262    0.005758859
     17        1          -0.001747222    0.003668433   -0.000015193
     18        1           0.002822278    0.000094584    0.000182049
     19        1          -0.000884046   -0.002956980    0.000203420
     20        1          -0.003851346    0.002326756    0.000198595
     21        1           0.002791241   -0.000472865    0.003363556
     22        1          -0.000760729   -0.002078335    0.000955219
     23        1          -0.001173967    0.000497271   -0.002427648
     24        1           0.002722344    0.004434580   -0.000528494
 -------------------------------------------------------------------
 Cartesian Forces:  Max     0.050458855 RMS     0.010844026
 Leave Link  716 at Fri Mar  6 16:27:30 2026, MaxMem=  2415919104 cpu:               0.1 elap:               0.3
 (Enter /prod/precompiled/gaussian/16c2/g16/l103.exe)

 GradGradGradGradGradGradGradGradGradGradGradGradGradGradGradGradGradGrad
 Berny optimization.
 Step   1 in ReCalcFC=30 IGetFC= 4 recover analytic Hessian.
 Search for a saddle point.
 Step number   1 out of a maximum of  144
 All quantities printed in internal units (Hartrees-Bohrs-Radians)
 Swapping is turned off.
 Second derivative matrix not updated -- analytic derivatives used.
 ITU=  0
     Eigenvalues ---   -0.12679  -0.00065   0.00083   0.00117   0.00398
     Eigenvalues ---    0.00695   0.01035   0.01203   0.01278   0.02053
     Eigenvalues ---    0.02191   0.02489   0.02597   0.02769   0.04224
     Eigenvalues ---    0.04570   0.05149   0.05195   0.05244   0.05323
     Eigenvalues ---    0.05468   0.05968   0.06239   0.07724   0.08210
     Eigenvalues ---    0.08338   0.10021   0.10191   0.10309   0.11837
     Eigenvalues ---    0.12581   0.15587   0.17159   0.17810   0.18698
     Eigenvalues ---    0.19955   0.20620   0.21203   0.22051   0.23388
     Eigenvalues ---    0.25719   0.30194   0.31199   0.35958   0.40199
     Eigenvalues ---    0.41646   0.44333   0.52339   0.58742   0.62330
     Eigenvalues ---    0.66574   0.77994   0.79117   0.83244   0.86758
     Eigenvalues ---    0.87121   0.92832   1.09444   1.10636   1.13278
     Eigenvalues ---    1.13609   1.27506   1.28269   1.32530   1.32746
     Eigenvalues ---    1.63261
 Eigenvectors required to have negative eigenvalues:
                          Y8        Y9        Y10       X10       Y1
   1                    0.93573  -0.19475  -0.14619   0.11473  -0.11297
                          Y11       Y20       Y2        Y7        Y3
   1                   -0.06881  -0.06688  -0.06593  -0.06515  -0.05360
 Eigenvalue     2 is  -6.48D-04 should be greater than     0.000000 Eigenvector:
                          Z17       Z9        Z19       Z20       Z3
   1                    0.36689  -0.36063  -0.32381  -0.29393   0.27517
                          Z22       Z6        Z7        Z4        Y12
   1                    0.22342  -0.20200  -0.19967   0.19603   0.19043
 RFO step:  Lambda0=1.268319977D-03 Lambda=-2.12791311D-02.
 Linear search not attempted -- option 19 set.
 Maximum step size (   0.300) exceeded in Quadratic search.
    -- Step size scaled by   0.269
 B after Tr=    -0.001618    0.000352    0.000924
         Rot=    1.000000   -0.000202    0.000164   -0.000024 Ang=  -0.03 deg.
 Variable       Old X    -DE/DX   Delta X   Delta X   Delta X     New X
                                 (Linear)    (Quad)   (Total)
    X1        2.69795  -0.05046   0.00000  -0.00856  -0.01017   2.68778
    Y1        0.00000  -0.01756   0.00000  -0.02696  -0.02647  -0.02647
    Z1        0.00000  -0.00034   0.00000  -0.01279  -0.01099  -0.01099
    X2        4.33675   0.01004   0.00000  -0.00951  -0.01124   4.32550
    Y2        2.11176   0.01206   0.00000  -0.01396  -0.01341   2.09835
    Z2        0.00000  -0.00054   0.00000   0.03591   0.03910   0.03910
    X3        3.35427  -0.01039   0.00000  -0.06270  -0.06461   3.28965
    Y3        5.24197  -0.00576   0.00000  -0.03537  -0.03490   5.20707
    Z3        0.04274   0.00034   0.00000   0.07746   0.08157   0.12431
    X4        6.97402  -0.00550   0.00000  -0.01275  -0.01446   6.95956
    Y4        1.79412  -0.00523   0.00000  -0.00391  -0.00322   1.79091
    Z4       -0.05742   0.00022   0.00000   0.05237   0.05631  -0.00111
    X5        8.04567  -0.00570   0.00000  -0.00647  -0.00802   8.03765
    Y5       -0.60499   0.00333   0.00000  -0.00104  -0.00024  -0.60524
    Z5       -0.12775   0.00057   0.00000   0.00485   0.00817  -0.11958
    X6        6.48433  -0.01266   0.00000   0.00300   0.00157   6.48590
    Y6       -2.71229  -0.00138   0.00000  -0.01130  -0.01056  -2.72285
    Z6       -0.11131  -0.00054   0.00000  -0.05806  -0.05610  -0.16741
    X7        3.85089   0.01879   0.00000   0.01167   0.01019   3.86109
    Y7       -2.40800  -0.00319   0.00000  -0.02028  -0.01971  -2.42770
    Z7       -0.03453  -0.00153   0.00000  -0.05115  -0.04993  -0.08446
    X8        0.00000   0.04392   0.00000   0.04290   0.04130   0.04130
    Y8        0.00000   0.01453   0.00000  -0.03566  -0.03529  -0.03529
    Z8        0.00000   0.00404   0.00000  -0.03090  -0.02998  -0.02998
    X9       -2.35194   0.02740   0.00000   0.04821   0.04664  -2.30530
    Y9        0.00410   0.01467   0.00000  -0.00307  -0.00277   0.00133
    Z9        0.00000  -0.00842   0.00000  -0.14429  -0.14412  -0.14412
   X10       -3.48274  -0.01931   0.00000  -0.00707  -0.00862  -3.49136
   Y10       -2.40635  -0.01767   0.00000   0.01169   0.01181  -2.39454
   Z10        0.16315   0.00203   0.00000  -0.00845  -0.00964   0.15351
   X11       -2.97774  -0.00695   0.00000  -0.00036  -0.00246  -2.98019
   Y11       -4.18892  -0.01075   0.00000   0.02943   0.02880  -4.16012
   Z11        2.06421  -0.00329   0.00000   0.00618   0.00445   2.06865
   X12       -0.74412   0.00512   0.00000   0.01723   0.01434  -0.72978
   Y12       -3.68288   0.00363   0.00000   0.05749   0.05603  -3.62684
   Z12        4.39995   0.00332   0.00000  -0.00930  -0.01008   4.38987
   X13       -4.35635  -0.00269   0.00000   0.00159  -0.00044  -4.35679
   Y13       -6.45104   0.00447   0.00000   0.03321   0.03245  -6.41859
   Z13        2.19897  -0.00555   0.00000   0.03039   0.02729   2.22626
   X14       -6.26931   0.00477   0.00000   0.00518   0.00374  -6.26557
   Y14       -6.95706   0.00189   0.00000   0.01318   0.01303  -6.94403
   Z14        0.45890   0.00332   0.00000   0.03442   0.03049   0.48938
   X15       -6.82919   0.00781   0.00000   0.00075  -0.00016  -6.82935
   Y15       -5.19782   0.00974   0.00000  -0.00385  -0.00327  -5.20110
   Z15       -1.40816  -0.00132   0.00000   0.01656   0.01314  -1.39502
   X16       -5.45552  -0.00411   0.00000  -0.00871  -0.00968  -5.46520
   Y16       -2.93792  -0.00830   0.00000  -0.00502  -0.00431  -2.94223
   Z16       -1.54240   0.00576   0.00000   0.00231   0.00025  -1.54215
   X17        8.20357  -0.00175   0.00000  -0.02009  -0.02189   8.18168
   Y17        3.44096   0.00367   0.00000   0.00401   0.00475   3.44571
   Z17       -0.05863  -0.00002   0.00000   0.09379   0.09879   0.04016
   X18       10.08939   0.00282   0.00000  -0.00273  -0.00425  10.08514
   Y18       -0.81426   0.00009   0.00000   0.00684   0.00775  -0.80651
   Z18       -0.19450   0.00018   0.00000   0.01918   0.02309  -0.17141
   X19        7.31158  -0.00088   0.00000   0.00600   0.00469   7.31628
   Y19       -4.59446  -0.00296   0.00000  -0.01039  -0.00958  -4.60404
   Z19       -0.16341   0.00020   0.00000  -0.08458  -0.08311  -0.24652
   X20        2.67334  -0.00385   0.00000  -0.00188  -0.00327   2.67007
   Y20       -4.09599   0.00233   0.00000  -0.01149  -0.01098  -4.10696
   Z20       -0.00715   0.00020   0.00000  -0.06779  -0.06764  -0.07480
   X21       -3.96244   0.00279   0.00000   0.01249   0.01002  -3.95242
   Y21       -7.80939  -0.00047   0.00000   0.04990   0.04855  -7.76083
   Z21        3.68702   0.00336   0.00000   0.04593   0.04242   3.72945
   X22       -7.33546  -0.00076   0.00000   0.01083   0.00943  -7.32603
   Y22       -8.71163  -0.00208   0.00000   0.00848   0.00822  -8.70341
   Z22        0.58396   0.00096   0.00000   0.05146   0.04646   0.63042
   X23       -8.34794  -0.00117   0.00000   0.00570   0.00526  -8.34268
   Y23       -5.56449   0.00050   0.00000  -0.02398  -0.02293  -5.58742
   Z23       -2.74530  -0.00243   0.00000   0.01338   0.00931  -2.73600
   X24       -5.96037   0.00272   0.00000   0.01265   0.01209  -5.94828
   Y24       -1.55089   0.00443   0.00000  -0.01501  -0.01374  -1.56463
   Z24       -2.97397  -0.00053   0.00000  -0.01757  -0.01924  -2.99320
         Item               Value     Threshold  Converged?
 Maximum Force            0.050459     0.000450     NO 
 RMS     Force            0.010844     0.000300     NO 
 Maximum Displacement     0.144124     0.001800     NO 
 RMS     Displacement     0.035299     0.001200     NO 
 Predicted change in Energy=-5.394904D-03
 Lowest energy point so far.  Saving SCF results.
 Step   1 in ReCalcFC=30 IGetFC= 0 compute gradient.
 GradGradGradGradGradGradGradGradGradGradGradGradGradGradGradGradGradGrad

 Leave Link  103 at Fri Mar  6 16:27:30 2026, MaxMem=  2415919104 cpu:               0.1 elap:               0.2
 (Enter /prod/precompiled/gaussian/16c2/g16/l202.exe)
                          Input orientation:                          
 ---------------------------------------------------------------------
 Center     Atomic      Atomic             Coordinates (Angstroms)
 Number     Number       Type             X           Y           Z
 ---------------------------------------------------------------------
      1          6           0        1.422312   -0.014009   -0.005818
      2          6           0        2.288958    1.110398    0.020691
      3         17           0        1.740809    2.755463    0.065779
      4          6           0        3.682840    0.947707   -0.000589
      5          6           0        4.253341   -0.320279   -0.063279
      6          6           0        3.432193   -1.440870   -0.088589
      7          6           0        2.043199   -1.284685   -0.044694
      8          7           0        0.021853   -0.018676   -0.015863
      9          7           0       -1.219913    0.000704   -0.076267
     10          6           0       -1.847550   -1.267136    0.081236
     11          6           0       -1.577050   -2.201439    1.094684
     12         17           0       -0.386182   -1.919243    2.323021
     13          6           0       -2.305514   -3.396570    1.178085
     14          6           0       -3.315596   -3.674621    0.258970
     15          6           0       -3.613934   -2.752301   -0.738215
     16          6           0       -2.892061   -1.556963   -0.816070
     17          1           0        4.329558    1.823389    0.021252
     18          1           0        5.336826   -0.426787   -0.090707
     19          1           0        3.871607   -2.436353   -0.130454
     20          1           0        1.412938   -2.173312   -0.039581
     21          1           0       -2.091530   -4.106857    1.973539
     22          1           0       -3.876768   -4.605647    0.333603
     23          1           0       -4.414756   -2.956735   -1.447826
     24          1           0       -3.147693   -0.827969   -1.583934
 ---------------------------------------------------------------------
                    Distance matrix (angstroms):
                    1          2          3          4          5
     1  C    0.000000
     2  C    1.419883   0.000000
     3  Cl   2.788645   1.734572   0.000000
     4  C    2.456606   1.403506   2.654030   0.000000
     5  C    2.848127   2.431602   3.973620   1.391829   0.000000
     6  C    2.466254   2.797838   4.527010   2.403304   1.389478
     7  C    1.414790   2.408546   4.052954   2.770188   2.411463
     8  N    1.400503   2.532965   3.264556   3.786417   4.242488
     9  N    2.643205   3.681440   4.046573   4.993949   5.482673
    10  C    3.502842   4.771481   5.390535   5.957972   6.175620
    11  C    3.871967   5.202667   6.052910   6.227615   6.234830
    12  Cl   3.510564   4.651432   5.610001   5.493224   5.456765
    13  C    5.171077   6.539228   7.446978   7.491489   7.350043
    14  C    5.993160   7.373209   8.182331   8.391150   8.285184
    15  C    5.779137   7.095105   7.723675   8.214443   8.262221
    16  C    4.653067   5.887100   6.390475   7.082917   7.290600
    17  H    3.439309   2.161575   2.751793   1.088825   2.146687
    18  H    3.937133   3.415384   4.804429   2.152446   1.089054
    19  H    3.447076   3.886781   5.615493   3.391808   2.151280
    20  H    2.159588   3.399087   4.940792   3.859370   3.391487
    21  H    5.745985   7.086751   8.088128   7.923961   7.664476
    22  H    7.019871   8.413516   9.263631   9.386112   9.198943
    23  H    6.694056   7.977337   8.532948   9.105506   9.165358
    24  H    4.902848   5.990764   6.281719   7.232993   7.572677
                    6          7          8          9         10
     6  C    0.000000
     7  C    1.398437   0.000000
     8  N    3.695720   2.385257   0.000000
     9  N    4.870357   3.507295   1.243385   0.000000
    10  C    5.285329   3.892825   2.250055   1.423430   0.000000
[...]
 Alpha  occ. eigenvalues --   -0.53614  -0.52838  -0.52442  -0.51059  -0.48805
 Alpha  occ. eigenvalues --   -0.48049  -0.47724  -0.45979  -0.45510  -0.43775
 Alpha  occ. eigenvalues --   -0.43475  -0.41823  -0.40813  -0.39021  -0.36694
 Alpha  occ. eigenvalues --   -0.35686  -0.34048  -0.32288  -0.25057
 Alpha virt. eigenvalues --   -0.02732   0.03270   0.05887   0.06485   0.07790
 Alpha virt. eigenvalues --    0.10609   0.12122   0.15153   0.17139   0.17559
 Alpha virt. eigenvalues --    0.19016   0.20765   0.21184   0.21853   0.22179
 Alpha virt. eigenvalues --    0.23383   0.23556   0.25505   0.29828   0.32517
 Alpha virt. eigenvalues --    0.33429   0.34287   0.35037   0.35844   0.36344
 Alpha virt. eigenvalues --    0.37222   0.38916   0.40264   0.41144   0.44964
 Alpha virt. eigenvalues --    0.45814   0.46286   0.47116   0.49415   0.50117
 Alpha virt. eigenvalues --    0.51339   0.52129   0.52689   0.53199   0.53917
 Alpha virt. eigenvalues --    0.55215   0.55435   0.55751   0.57628   0.58555
 Alpha virt. eigenvalues --    0.59688   0.59780   0.60183   0.61360   0.62351
 Alpha virt. eigenvalues --    0.64077   0.65437   0.65936   0.67674   0.67944
 Alpha virt. eigenvalues --    0.69506   0.69606   0.71322   0.72290   0.73105
 Alpha virt. eigenvalues --    0.73486   0.74198   0.74315   0.74916   0.76535
 Alpha virt. eigenvalues --    0.77213   0.77497   0.78223   0.78739   0.79046
 Alpha virt. eigenvalues --    0.79515   0.80487   0.80998   0.82573   0.82943
 Alpha virt. eigenvalues --    0.83686   0.85678   0.86628   0.87332   0.88445
 Alpha virt. eigenvalues --    0.88818   0.89432   0.90766   0.91607   0.92189
 Alpha virt. eigenvalues --    0.94062   0.94223   0.95646   0.95979   0.98976
 Alpha virt. eigenvalues --    1.02077   1.02695   1.02993   1.05176   1.06829
 Alpha virt. eigenvalues --    1.10060   1.11426   1.13639   1.15866   1.18972
 Alpha virt. eigenvalues --    1.21737   1.22980   1.24377   1.24944   1.28299
 Alpha virt. eigenvalues --    1.30199   1.31378   1.31713   1.32474   1.32676
 Alpha virt. eigenvalues --    1.34689   1.35370   1.35630   1.36565   1.36995
 Alpha virt. eigenvalues --    1.39003   1.39270   1.45571   1.48507   1.50386
 Alpha virt. eigenvalues --    1.55934   1.58039   1.58389   1.59317   1.63204
 Alpha virt. eigenvalues --    1.67492   1.72789   1.74569   1.76233   1.77077
 Alpha virt. eigenvalues --    1.79128   1.79653   1.80192   1.82106   1.83160
 Alpha virt. eigenvalues --    1.83541   1.84182   1.84771   1.85122   1.86896
 Alpha virt. eigenvalues --    1.88609   1.89064   1.89905   1.92322   1.95480
 Alpha virt. eigenvalues --    1.97930   1.98236   2.00130   2.01066   2.01636
 Alpha virt. eigenvalues --    2.03232   2.04010   2.06321   2.07543   2.09933
 Alpha virt. eigenvalues --    2.11399   2.12755   2.15899   2.16611   2.18479
 Alpha virt. eigenvalues --    2.20567   2.21202   2.22719   2.25085   2.29062
 Alpha virt. eigenvalues --    2.30083   2.31352   2.33729   2.34048   2.34238
 Alpha virt. eigenvalues --    2.36800   2.37914   2.38449   2.39298   2.40048
 Alpha virt. eigenvalues --    2.42122   2.46368   2.50059   2.52091   2.58236
 Alpha virt. eigenvalues --    2.63059   2.64569   2.68313   2.68432   2.68878
 Alpha virt. eigenvalues --    2.70569   2.72875   2.75902   2.78338   2.81061
 Alpha virt. eigenvalues --    2.81505   2.81972   2.87829   2.89437   2.91366
 Alpha virt. eigenvalues --    2.92416   2.95278   3.04891   3.08346   3.13229
 Alpha virt. eigenvalues --    3.15611   3.20221   3.24119   3.39969   3.46141
 Alpha virt. eigenvalues --    3.60548   3.66534   3.88202
          Condensed to atoms (all electrons):
               1          2          3          4          5          6
     1  C    5.101951   0.240311  -0.066989   0.081768  -0.134084   0.102732
     2  C    0.240311   5.254811   0.242425   0.367085   0.075616  -0.159461
     3  Cl  -0.066989   0.242425  16.963091  -0.041622   0.002279   0.000654
     4  C    0.081768   0.367085  -0.041622   4.941637   0.310995   0.086733
     5  C   -0.134084   0.075616   0.002279   0.310995   5.093237   0.294218
     6  C    0.102732  -0.159461   0.000654   0.086733   0.294218   5.030784
     7  C    0.293719   0.092832   0.001769  -0.116700   0.056663   0.317263
     8  N    0.366599  -0.072334  -0.001852   0.005838  -0.000003   0.008092
     9  N   -0.057186   0.003642  -0.002085  -0.000044  -0.000005  -0.000020
    10  C   -0.001122   0.000631   0.004511  -0.000010  -0.000003   0.000013
    11  C   -0.000263   0.000333   0.000525  -0.000005   0.000001  -0.000001
    12  Cl  -0.007128   0.000767  -0.000003  -0.000451   0.000134  -0.000924
    13  C   -0.000025   0.000019  -0.000070  -0.000000   0.000000  -0.000000
    14  C   -0.000006   0.000001   0.000003   0.000000  -0.000000   0.000000
    15  C    0.000005   0.000000  -0.000024  -0.000000   0.000000   0.000000
    16  C   -0.000262  -0.000060  -0.000512  -0.000001   0.000000   0.000000
    17  H    0.016828  -0.066842   0.000423   0.440930  -0.059999   0.012469
    18  H   -0.001912   0.014749  -0.000100  -0.065093   0.450331  -0.067376
    19  H    0.014384  -0.001141   0.000006   0.012316  -0.065314   0.441280
    20  H   -0.076108   0.016207  -0.000086  -0.002529   0.013921  -0.064012
    21  H    0.000010  -0.000002   0.000000   0.000000   0.000000   0.000000
    22  H    0.000000  -0.000000   0.000000  -0.000000   0.000000  -0.000000
    23  H   -0.000000  -0.000000   0.000000   0.000000  -0.000000   0.000000
    24  H    0.000009  -0.000006   0.000053   0.000000  -0.000000  -0.000000
               7          8          9         10         11         12
     1  C    0.293719   0.366599  -0.057186  -0.001122  -0.000263  -0.007128
     2  C    0.092832  -0.072334   0.003642   0.000631   0.000333   0.000767
     3  Cl   0.001769  -0.001852  -0.002085   0.004511   0.000525  -0.000003
     4  C   -0.116700   0.005838  -0.000044  -0.000010  -0.000005  -0.000451
     5  C    0.056663  -0.000003  -0.000005  -0.000003   0.000001   0.000134
     6  C    0.317263   0.008092  -0.000020   0.000013  -0.000001  -0.000924
     7  C    5.073633  -0.066640   0.003301   0.000544   0.000105   0.010177
     8  N   -0.066640   6.615927   0.304609  -0.084795  -0.007681  -0.001331
     9  N    0.003301   0.304609   6.541637   0.352407  -0.063667  -0.005596
    10  C    0.000544  -0.084795   0.352407   5.213584   0.180645  -0.060523
    11  C    0.000105  -0.007681  -0.063667   0.180645   5.302464   0.259806
    12  Cl   0.010177  -0.001331  -0.005596  -0.060523   0.259806  16.905036
    13  C    0.000015  -0.000946   0.003782   0.084744   0.336599  -0.056504
    14  C   -0.000000   0.000049  -0.000214  -0.137983   0.086503   0.002555
    15  C   -0.000000  -0.000411   0.007556   0.093172  -0.149085   0.000702
    16  C    0.000007   0.006873  -0.074278   0.359853   0.037892   0.001416
    17  H   -0.001706  -0.000073   0.000001  -0.000001  -0.000000  -0.000001
    18  H    0.013166   0.000004  -0.000000   0.000000  -0.000000   0.000000
    19  H   -0.060407  -0.000116  -0.000000  -0.000000   0.000000  -0.000014
    20  H    0.460636  -0.010367   0.000971  -0.000083  -0.000051   0.002057
    21  H   -0.000003   0.000040  -0.000081   0.016053  -0.062905   0.002412
    22  H    0.000000   0.000000   0.000005  -0.001768   0.013803  -0.000114
    23  H   -0.000000   0.000005  -0.000111   0.012799  -0.001361   0.000007
    24  H   -0.000000   0.000314   0.004458  -0.061885   0.021399  -0.000047
              13         14         15         16         17         18
     1  C   -0.000025  -0.000006   0.000005  -0.000262   0.016828  -0.001912
     2  C    0.000019   0.000001   0.000000  -0.000060  -0.066842   0.014749
     3  Cl  -0.000070   0.000003  -0.000024  -0.000512   0.000423  -0.000100
     4  C   -0.000000   0.000000  -0.000000  -0.000001   0.440930  -0.065093
     5  C    0.000000  -0.000000   0.000000   0.000000  -0.059999   0.450331
     6  C   -0.000000   0.000000   0.000000   0.000000   0.012469  -0.067376
     7  C    0.000015  -0.000000  -0.000000   0.000007  -0.001706   0.013166
     8  N   -0.000946   0.000049  -0.000411   0.006873  -0.000073   0.000004
     9  N    0.003782  -0.000214   0.007556  -0.074278   0.000001  -0.000000
    10  C    0.084744  -0.137983   0.093172   0.359853  -0.000001   0.000000
    11  C    0.336599   0.086503  -0.149085   0.037892  -0.000000  -0.000000
    12  Cl  -0.056504   0.002555   0.000702   0.001416  -0.000001   0.000000
    13  C    4.978895   0.311228   0.075391  -0.102248   0.000000  -0.000000
    14  C    0.311228   5.043627   0.277881   0.074663  -0.000000  -0.000000
    15  C    0.075391   0.277881   5.095930   0.280204   0.000000  -0.000000
    16  C   -0.102248   0.074663   0.280204   5.034283   0.000000  -0.000000
    17  H    0.000000  -0.000000   0.000000   0.000000   0.650760  -0.011528
    18  H   -0.000000  -0.000000  -0.000000  -0.000000  -0.011528   0.660770
    19  H   -0.000000  -0.000000   0.000000  -0.000000  -0.000233  -0.011040
    20  H    0.000003  -0.000000   0.000000   0.000003   0.000011  -0.000190
    21  H    0.439486  -0.057493   0.012360  -0.002048  -0.000000  -0.000000
    22  H   -0.059671   0.444968  -0.063383   0.012373  -0.000000   0.000000
    23  H    0.011892  -0.063735   0.449345  -0.062133   0.000000  -0.000000
    24  H   -0.003063   0.012469  -0.068791   0.435787  -0.000000   0.000000
              19         20         21         22         23         24
     1  C    0.014384  -0.076108   0.000010   0.000000  -0.000000   0.000009
     2  C   -0.001141   0.016207  -0.000002  -0.000000  -0.000000  -0.000006
     3  Cl   0.000006  -0.000086   0.000000   0.000000   0.000000   0.000053
     4  C    0.012316  -0.002529   0.000000  -0.000000   0.000000   0.000000
     5  C   -0.065314   0.013921   0.000000   0.000000  -0.000000  -0.000000
     6  C    0.441280  -0.064012   0.000000  -0.000000   0.000000  -0.000000
     7  C   -0.060407   0.460636  -0.000003   0.000000  -0.000000  -0.000000
     8  N   -0.000116  -0.010367   0.000040   0.000000   0.000005   0.000314
     9  N   -0.000000   0.000971  -0.000081   0.000005  -0.000111   0.004458
    10  C   -0.000000  -0.000083   0.016053  -0.001768   0.012799  -0.061885
    11  C    0.000000  -0.000051  -0.062905   0.013803  -0.001361   0.021399
    12  Cl  -0.000014   0.002057   0.002412  -0.000114   0.000007  -0.000047
    13  C   -0.000000   0.000003   0.439486  -0.059671   0.011892  -0.003063
    14  C   -0.000000  -0.000000  -0.057493   0.444968  -0.063735   0.012469
    15  C    0.000000   0.000000   0.012360  -0.063383   0.449345  -0.068791
    16  C   -0.000000   0.000003  -0.002048   0.012373  -0.062133   0.435787
    17  H   -0.000233   0.000011  -0.000000  -0.000000   0.000000  -0.000000
    18  H   -0.011040  -0.000190  -0.000000   0.000000  -0.000000   0.000000
    19  H    0.658363  -0.012225   0.000000  -0.000000   0.000000   0.000000
    20  H   -0.012225   0.662887  -0.000000   0.000000  -0.000000  -0.000001
    21  H    0.000000  -0.000000   0.633573  -0.011068  -0.000177   0.000028
    22  H   -0.000000   0.000000  -0.011068   0.635183  -0.010307  -0.000180
    23  H    0.000000  -0.000000  -0.000177  -0.010307   0.635931  -0.009731
    24  H    0.000000  -0.000001   0.000028  -0.000180  -0.009731   0.636288
 Mulliken charges:
               1
     1  C    0.126768
     2  C   -0.009582
     3  Cl  -0.102399
     4  C   -0.020847
     5  C   -0.037987
     6  C   -0.002444
     7  C   -0.078376
     8  N   -0.061801
     9  N   -0.019083
    10  C    0.029219
    11  C    0.044944
    12  Cl  -0.052433
    13  C   -0.019525
    14  C    0.005483
    15  C   -0.010852
    16  C   -0.001814
    17  H    0.018961
    18  H    0.018219
    19  H    0.024141
    20  H    0.008957
    21  H    0.029815
    22  H    0.040160
    23  H    0.037578
    24  H    0.032897
 Sum of Mulliken charges =  -0.00000
 Mulliken charges with hydrogens summed into heavy atoms:
               1
     1  C    0.126768
     2  C   -0.009582
     3  Cl  -0.102399
     4  C   -0.001886
     5  C   -0.019768
     6  C    0.021697
     7  C   -0.069419
     8  N   -0.061801
     9  N   -0.019083
    10  C    0.029219
    11  C    0.044944
    12  Cl  -0.052433
    13  C    0.010290
    14  C    0.045643
    15  C    0.026726
    16  C    0.031083
 APT charges:
               1
     1  C   -0.326355
     2  C   -0.527411
     3  Cl  -0.032511
     4  C   -0.363471
     5  C   -0.617306
     6  C   -0.468660
     7  C   -0.630010
     8  N   -0.082004
     9  N    0.028634
    10  C   -0.661632
    11  C   -0.303545
    12  Cl   0.046534
    13  C   -0.497170
    14  C   -0.540383
    15  C   -0.522278
    16  C   -0.335336
    17  H    0.504583
    18  H    0.947430
    19  H    0.935175
    20  H    0.490536
    21  H    0.709256
    22  H    1.060849
    23  H    0.876230
    24  H    0.308844
 Sum of APT charges =  -0.00000
 APT charges with hydrogens summed into heavy atoms:
               1
     1  C   -0.326355
     2  C   -0.527411
     3  Cl  -0.032511
     4  C    0.141112
     5  C    0.330125
     6  C    0.466515
     7  C   -0.139474
     8  N   -0.082004
     9  N    0.028634
    10  C   -0.661632
    11  C   -0.303545
    12  Cl   0.046534
    13  C    0.212087
    14  C    0.520466
    15  C    0.353953
    16  C   -0.026492
 Electronic spatial extent (au):  <R**2>=           5069.6123
 Charge=              0.0000 electrons
 Dipole moment (field-independent basis, Debye):
    X=             -2.3572    Y=             -1.9192    Z=              0.7962  Tot=              3.1423
 Quadrupole moment (field-independent basis, Debye-Ang):
   XX=            -86.4021   YY=           -100.1109   ZZ=           -105.5795
   XY=              5.4045   XZ=             -1.1060   YZ=             -1.5296
 Traceless Quadrupole moment (field-independent basis, Debye-Ang):
   XX=             10.9621   YY=             -2.7467   ZZ=             -8.2153
   XY=              5.4045   XZ=             -1.1060   YZ=             -1.5296
 Octapole moment (field-independent basis, Debye-Ang**2):
  XXX=            -84.3839  YYY=            351.3304  ZZZ=            -31.9920  XYY=            -25.2626
  XXY=             85.2226  XXZ=             -2.7884  XZZ=            -28.1681  YZZ=            113.0477
  YYZ=              1.1740  XYZ=             23.8878
 Hexadecapole moment (field-independent basis, Debye-Ang**3):
 XXXX=          -3460.0084 YYYY=          -2453.2942 ZZZZ=           -574.6334 XXXY=           -458.3903
 XXXZ=             70.6710 YYYX=           -547.4747 YYYZ=             72.0186 ZZZX=             47.1286
 ZZZY=             93.4238 XXYY=           -968.5478 XXZZ=           -739.0593 YYZZ=           -463.8565
 XXYZ=             24.7328 YYXZ=            -43.9035 ZZXY=           -162.3325
 N-N= 1.226615370117D+03 E-N=-5.963358672951D+03  KE= 1.483120948220D+03
  Exact polarizability:       0.000       0.000       0.000       0.000       0.000       0.000
 Approx polarizability:     267.748       4.436     154.164      14.183      -2.438     145.717
 No NMR shielding tensors so no spin-rotation constants.
 Leave Link  601 at Fri Mar  6 17:04:47 2026, MaxMem=  2415919104 cpu:               1.1 elap:               0.2
 (Enter /prod/precompiled/gaussian/16c2/g16/l716.exe)
 Dipole        =-9.27399099D-01-7.55070855D-01 3.13261125D-01
 Polarizability= 0.00000000D+00 0.00000000D+00 0.00000000D+00
                 0.00000000D+00 0.00000000D+00 0.00000000D+00
 -------------------------------------------------------------------
 Center     Atomic                   Forces (Hartrees/Bohr)
 Number     Number              X              Y              Z
 -------------------------------------------------------------------
      1        6           0.000000144   -0.000000144   -0.000001608
      2        6           0.000000894    0.000001454   -0.000000400
      3       17          -0.000000486   -0.000001427   -0.000003236
      4        6          -0.000000815   -0.000000483   -0.000002329
      5        6          -0.000003897    0.000004961    0.000000680
      6        6          -0.000000966    0.000001548   -0.000000148
      7        6          -0.000000540    0.000002571    0.000001513
      8        7           0.000006980   -0.000000270    0.000002155
      9        7           0.000000393   -0.000000647   -0.000003156
     10        6           0.000004099    0.000000810   -0.000001498
     11        6           0.000005842    0.000001377   -0.000001049
     12       17           0.000007970    0.000000062    0.000002801
     13        6           0.000001356   -0.000003958    0.000005035
     14        6          -0.000001299   -0.000001551   -0.000000637
     15        6          -0.000004639   -0.000003979    0.000001640
     16        6           0.000001387    0.000001039   -0.000005146
     17        1          -0.000001208    0.000000230   -0.000000834
     18        1          -0.000002795    0.000001327   -0.000000416
     19        1          -0.000002904    0.000002846    0.000001040
     20        1           0.000000040    0.000000735    0.000000769
     21        1           0.000001340   -0.000001932    0.000003061
     22        1          -0.000005905   -0.000003794    0.000004992
     23        1          -0.000004710   -0.000000950   -0.000000836
     24        1          -0.000000282    0.000000175   -0.000002395
 -------------------------------------------------------------------
 Cartesian Forces:  Max     0.000007970 RMS     0.000002729
 Leave Link  716 at Fri Mar  6 17:04:47 2026, MaxMem=  2415919104 cpu:               0.1 elap:               0.1
 (Enter /prod/precompiled/gaussian/16c2/g16/l9999.exe)
 Unable to Open any file for archive entry.
 1\1\GINC-AMD27\FTS\RwB97XD\def2SVP\C12H8Cl2N2\SVELA\06-Mar-2026\0\\#p 
 nosymm scf=(maxconventionalcycles=200,xqc) wB97XD def2SVP opt=(TS,NoEi
 genTest,RecalcFC=30,Cartesian,SkipDihedral,MaxCycles=300)\\Title Card\
 \0,1\C,1.6491602885,-0.6270682758,-0.574104294\C,1.8096430198,0.565188
 9754,0.178184495\Cl,0.3924393639,1.5259705145,0.5091103322\C,3.0595363
 767,0.9519261721,0.6389641049\C,4.1821154838,0.1605961821,0.3984329517
 \C,4.0310012626,-1.0265382706,-0.3193175009\C,2.795435835,-1.423951796
 3,-0.8108431846\N,0.4514854136,-0.978556512,-1.0197398405\N,-0.6659794
 764,-1.2357079592,-1.414890785\C,-1.6076479713,-1.8328379338,-0.502863
 9922\C,-1.3292402736,-2.6212256639,0.6254101304\Cl,0.2906355378,-3.054
 7026027,1.0793364986\C,-2.3783051156,-3.1260646351,1.393222129\C,-3.69
 83192947,-2.843702624,1.0511306723\C,-3.9848750843,-2.0750011539,-0.07
 66090752\C,-2.9397544314,-1.5926983981,-0.8535647469\H,3.1384210246,1.
 8822466981,1.2041913436\H,5.1595037386,0.4688053918,0.7710490463\H,4.8
 98317236,-1.6618682528,-0.5121342669\H,2.6828432631,-2.348704975,-1.37
 68354674\H,-2.14553829,-3.7448029709,2.2610227704\H,-4.5073091919,-3.2
 406552117,1.6674902245\H,-5.0185493347,-1.8618957454,-0.3535230328\H,-
 3.1171333802,-1.0015439529,-1.7541435126\\Version=ES64L-G16RevC.02\HF=
 -1490.9841037\RMSD=5.512e-09\RMSF=2.729e-06\Dipole=-0.9273991,-0.75507
 09,0.3132611\Polar=0.,0.,0.,0.,0.,0.\Quadrupole=8.1500253,-2.0421229,-
 6.1079024,4.0180981,-0.8222901,-1.1372438\PG=C01 [X(C12H8Cl2N2)]\\@
 The archive entry for this job was punched.


 THE UNDERLYING PHYSICAL LAWS NECESSARY FOR THE 
 MATHEMATICAL THEORY OF A LARGE PART OF PHYSICS AND THE
 WHOLE OF CHEMISTRY ARE THUS COMPLETELY KNOWN, AND THE
 DIFFICULTY IS ONLY THAT THE EXACT APPLICATION OF THESE
 LAWS LEADS TO EQUATIONS MUCH TOO COMPLICATED 
 TO BE SOLUBLE.

                                        -- P. A. M. DIRAC, 1929
 Job cpu time:       0 days  6 hours 25 minutes  4.3 seconds.
 Elapsed time:       0 days  0 hours 39 minutes 12.5 seconds.
 File lengths (MBytes):  RWF=    245 Int=      0 D2E=      0 Chk=      7 Scr=      1
 Normal termination of Gaussian 16 at Fri Mar  6 17:04:47 2026.
