 Entering Gaussian System, Link 0=g16
 Initial command:
 /prod/precompiled/gaussian/16c2/g16/l1.exe "/scratch/ucsscms/svela/2076947/Gau-33038.inp" -scrdir="/scratch/ucsscms/svela/2076947/"
 Entering Link 1 = /prod/precompiled/gaussian/16c2/g16/l1.exe PID=     33046.
  
 Copyright (c) 1988-2021, Gaussian, Inc.  All Rights Reserved.
  
 This is part of the Gaussian(R) 16 program.  It is based on
 the Gaussian(R) 09 system (copyright 2009, Gaussian, Inc.),
 the Gaussian(R) 03 system (copyright 2003, Gaussian, Inc.),
 the Gaussian(R) 98 system (copyright 1998, Gaussian, Inc.),
 the Gaussian(R) 94 system (copyright 1995, Gaussian, Inc.),
 the Gaussian 92(TM) system (copyright 1992, Gaussian, Inc.),
 the Gaussian 90(TM) system (copyright 1990, Gaussian, Inc.),
 the Gaussian 88(TM) system (copyright 1988, Gaussian, Inc.),
 the Gaussian 86(TM) system (copyright 1986, Carnegie Mellon
 University), and the Gaussian 82(TM) system (copyright 1983,
 Carnegie Mellon University). Gaussian is a federally registered
 trademark of Gaussian, Inc.
  
 This software contains proprietary and confidential information,
 including trade secrets, belonging to Gaussian, Inc.
  
 This software is provided under written license and may be
 used, copied, transmitted, or stored only in accord with that
 written license.
  
 The following legend is applicable only to US Government
 contracts under FAR:
  
                    RESTRICTED RIGHTS LEGEND
  
 Use, reproduction and disclosure by the US Government is
 subject to restrictions as set forth in subparagraphs (a)
 and (c) of the Commercial Computer Software - Restricted
 Rights clause in FAR 52.227-19.
  
 Gaussian, Inc.
 340 Quinnipiac St., Bldg. 40, Wallingford CT 06492
  
  
 ---------------------------------------------------------------
 Warning -- This program may not be used in any manner that
 competes with the business of Gaussian, Inc. or will provide
 assistance to any competitor of Gaussian, Inc.  The licensee
 of this program is prohibited from giving any competitor of
 Gaussian, Inc. access to this program.  By using this program,
 the user acknowledges that Gaussian, Inc. is engaged in the
 business of creating and licensing software in the field of
 computational chemistry and represents and warrants to the
 licensee that it is not a competitor of Gaussian, Inc. and that
 it will not use this program in any manner prohibited above.
 ---------------------------------------------------------------
  

 Cite this work as:
 Gaussian 16, Revision C.02,
 M. J. Frisch, G. W. Trucks, H. B. Schlegel, G. E. Scuseria, 
 M. A. Robb, J. R. Cheeseman, G. Scalmani, V. Barone, 
 G. A. Petersson, H. Nakatsuji, X. Li, M. Caricato, A. V. Marenich, 
 J. Bloino, B. G. Janesko, R. Gomperts, B. Mennucci, H. P. Hratchian, 
 J. V. Ortiz, A. F. Izmaylov, J. L. Sonnenberg, D. Williams-Young, 
 F. Ding, F. Lipparini, F. Egidi, J. Goings, B. Peng, A. Petrone, 
 T. Henderson, D. Ranasinghe, V. G. Zakrzewski, J. Gao, N. Rega, 
 G. Zheng, W. Liang, M. Hada, M. Ehara, K. Toyota, R. Fukuda, 
 J. Hasegawa, M. Ishida, T. Nakajima, Y. Honda, O. Kitao, H. Nakai, 
 T. Vreven, K. Throssell, J. A. Montgomery, Jr., J. E. Peralta, 
 F. Ogliaro, M. J. Bearpark, J. J. Heyd, E. N. Brothers, K. N. Kudin, 
 V. N. Staroverov, T. A. Keith, R. Kobayashi, J. Normand, 
 K. Raghavachari, A. P. Rendell, J. C. Burant, S. S. Iyengar, 
 J. Tomasi, M. Cossi, J. M. Millam, M. Klene, C. Adamo, R. Cammi, 
 J. W. Ochterski, R. L. Martin, K. Morokuma, O. Farkas, 
 J. B. Foresman, and D. J. Fox, Gaussian, Inc., Wallingford CT, 2019.
 
 ******************************************
 Gaussian 16:  ES64L-G16RevC.02  7-Dec-2021
                 6-Mar-2026 
 ******************************************
 %nprocs=12
 Will use up to   12 processors via shared memory.
 %mem=18gb
 %chk=test_tsinv_l_b_freq_r1.chk
 ----------------------------------------------------------------------
 #p nosymm scf=(maxconventionalcycles=200,xqc) wB97XD def2SVP freq(hpmo
 des)
 ----------------------------------------------------------------------
 1/10=4,30=1,38=1/1,3;
 2/12=2,15=1,17=6,18=5,40=1/2;
 3/5=43,7=101,11=2,25=1,30=1,71=2,74=-58,140=1/1,2,3;
 4//1;
 5/5=2,8=3,13=1,38=5,85=200,98=1/2,8;
 8/6=4,10=90,11=11/1;
 11/6=1,8=1,9=11,15=111,16=1,31=1/1,2,10;
 10/6=1,31=1/2;
 6/7=2,8=2,9=2,10=2,28=1/1;
 7/8=11,10=1,25=1,30=1/1,2,3,16;
 1/10=4,30=1/3;
 99//99;
 Leave Link    1 at Fri Mar  6 17:31:51 2026, MaxMem=  2415919104 cpu:               0.2 elap:               0.1
 (Enter /prod/precompiled/gaussian/16c2/g16/l101.exe)
 ----------
 Title Card
 ----------
 Symbolic Z-matrix:
 Charge =  0 Multiplicity = 1
 C                     1.46753  -0.06769  -0.30935 
 C                     2.44807  -0.9727   -0.7916 
 Cl                    1.92029  -2.30448  -1.78587 
 C                     3.7883   -0.80218  -0.47722 
 C                     4.19791   0.24671   0.34511 
 C                     3.23843   1.12853   0.8442 
 C                     1.89436   0.9929    0.52611 
 N                     0.19164  -0.23481  -0.62669 
 N                    -0.95594  -0.43064  -0.96684 
 C                    -1.72616  -1.43335  -0.27648 
 C                    -1.55394  -1.89433   1.0388 
 Cl                   -0.34261  -1.2433    2.10041 
 C                    -2.40771  -2.87307   1.54686 
 C                    -3.42278  -3.40057   0.75274 
 C                    -3.61154  -2.93751  -0.5491 
 C                    -2.77522  -1.94622  -1.04564 
 H                     4.50962  -1.51615  -0.87868 
 H                     5.25281   0.3685    0.59302 
 H                     3.54033   1.95265   1.49439 
 H                     1.14887   1.68776   0.9129 
 H                    -2.26674  -3.21369   2.57361 
 H                    -4.07765  -4.17145   1.1637 
 H                    -4.41346  -3.34081  -1.16952 
 H                    -2.89655  -1.54157  -2.05238 
 
 ITRead=  0  0  0  0  0  0  0  0  0  0  0  0  0  0  0  0  0  0  0  0
 ITRead=  0  0  0  0
 MicOpt= -1 -1 -1 -1 -1 -1 -1 -1 -1 -1 -1 -1 -1 -1 -1 -1 -1 -1 -1 -1
 MicOpt= -1 -1 -1 -1
 NAtoms=     24 NQM=       24 NQMF=       0 NMMI=      0 NMMIF=      0
                NMic=       0 NMicF=      0.
                    Isotopes and Nuclear Properties:
 (Nuclear quadrupole moments (NQMom) in fm**2, nuclear magnetic moments (NMagM)
  in nuclear magnetons)

  Atom         1           2           3           4           5           6           7           8           9          10
 IAtWgt=          12          12          35          12          12          12          12          14          14          12
 AtmWgt=  12.0000000  12.0000000  34.9688527  12.0000000  12.0000000  12.0000000  12.0000000  14.0030740  14.0030740  12.0000000
 NucSpn=           0           0           3           0           0           0           0           2           2           0
 AtZEff=  -0.0000000  -0.0000000  -0.0000000  -0.0000000  -0.0000000  -0.0000000  -0.0000000  -0.0000000  -0.0000000  -0.0000000
 NQMom=    0.0000000   0.0000000  -8.1650000   0.0000000   0.0000000   0.0000000   0.0000000   2.0440000   2.0440000   0.0000000
 NMagM=    0.0000000   0.0000000   0.8218740   0.0000000   0.0000000   0.0000000   0.0000000   0.4037610   0.4037610   0.0000000
 AtZNuc=   6.0000000   6.0000000  17.0000000   6.0000000   6.0000000   6.0000000   6.0000000   7.0000000   7.0000000   6.0000000

  Atom        11          12          13          14          15          16          17          18          19          20
 IAtWgt=          12          35          12          12          12          12           1           1           1           1
 AtmWgt=  12.0000000  34.9688527  12.0000000  12.0000000  12.0000000  12.0000000   1.0078250   1.0078250   1.0078250   1.0078250
 NucSpn=           0           3           0           0           0           0           1           1           1           1
 AtZEff=  -0.0000000  -0.0000000  -0.0000000  -0.0000000  -0.0000000  -0.0000000  -0.0000000  -0.0000000  -0.0000000  -0.0000000
 NQMom=    0.0000000  -8.1650000   0.0000000   0.0000000   0.0000000   0.0000000   0.0000000   0.0000000   0.0000000   0.0000000
 NMagM=    0.0000000   0.8218740   0.0000000   0.0000000   0.0000000   0.0000000   2.7928460   2.7928460   2.7928460   2.7928460
 AtZNuc=   6.0000000  17.0000000   6.0000000   6.0000000   6.0000000   6.0000000   1.0000000   1.0000000   1.0000000   1.0000000

  Atom        21          22          23          24
 IAtWgt=           1           1           1           1
 AtmWgt=   1.0078250   1.0078250   1.0078250   1.0078250
 NucSpn=           1           1           1           1
 AtZEff=  -0.0000000  -0.0000000  -0.0000000  -0.0000000
 NQMom=    0.0000000   0.0000000   0.0000000   0.0000000
 NMagM=    2.7928460   2.7928460   2.7928460   2.7928460
 AtZNuc=   1.0000000   1.0000000   1.0000000   1.0000000
 Leave Link  101 at Fri Mar  6 17:31:52 2026, MaxMem=  2415919104 cpu:               0.4 elap:               0.2
 (Enter /prod/precompiled/gaussian/16c2/g16/l103.exe)

 GradGradGradGradGradGradGradGradGradGradGradGradGradGradGradGradGradGrad
 Berny optimization.
 Initialization pass.
 Trust Radius=3.00D-01 FncErr=1.00D-07 GrdErr=1.00D-07 EigMax=2.50D+02 EigMin=1.00D-04
 Number of steps in this run=      2 maximum allowed number of steps=      2.
 GradGradGradGradGradGradGradGradGradGradGradGradGradGradGradGradGradGrad

 Leave Link  103 at Fri Mar  6 17:31:52 2026, MaxMem=  2415919104 cpu:               0.2 elap:               0.1
 (Enter /prod/precompiled/gaussian/16c2/g16/l202.exe)
                          Input orientation:                          
 ---------------------------------------------------------------------
 Center     Atomic      Atomic             Coordinates (Angstroms)
 Number     Number       Type             X           Y           Z
 ---------------------------------------------------------------------
      1          6           0        1.467531   -0.067694   -0.309345
      2          6           0        2.448072   -0.972698   -0.791597
      3         17           0        1.920291   -2.304480   -1.785872
      4          6           0        3.788301   -0.802183   -0.477222
      5          6           0        4.197905    0.246710    0.345114
      6          6           0        3.238435    1.128530    0.844199
      7          6           0        1.894364    0.992896    0.526108
      8          7           0        0.191636   -0.234811   -0.626688
      9          7           0       -0.955937   -0.430642   -0.966842
     10          6           0       -1.726159   -1.433353   -0.276478
     11          6           0       -1.553944   -1.894328    1.038804
     12         17           0       -0.342608   -1.243295    2.100408
     13          6           0       -2.407709   -2.873072    1.546864
     14          6           0       -3.422777   -3.400571    0.752743
     15          6           0       -3.611539   -2.937507   -0.549095
     16          6           0       -2.775215   -1.946223   -1.045640
     17          1           0        4.509616   -1.516146   -0.878682
     18          1           0        5.252813    0.368498    0.593016
     19          1           0        3.540325    1.952647    1.494386
     20          1           0        1.148874    1.687763    0.912900
     21          1           0       -2.266736   -3.213692    2.573608
     22          1           0       -4.077648   -4.171451    1.163702
     23          1           0       -4.413458   -3.340814   -1.169519
     24          1           0       -2.896547   -1.541574   -2.052382
 ---------------------------------------------------------------------
                    Distance matrix (angstroms):
                    1          2          3          4          5
     1  C    0.000000
     2  C    1.418823   0.000000
     3  Cl   2.718149   1.743783   0.000000
     4  C    2.440006   1.387127   2.731103   0.000000
     5  C    2.825263   2.416813   4.029541   1.394342   0.000000
     6  C    2.428521   2.777708   4.521099   2.403364   1.395448
     7  C    1.415987   2.430329   4.027234   2.795707   2.428138
     8  N    1.325346   2.379743   2.935215   3.644208   4.150476
     9  N    2.537170   3.451349   3.529131   4.783886   5.361168
    10  C    3.473580   4.231047   4.041501   5.554092   6.188984
    11  C    3.779340   4.496210   4.496368   5.659567   6.176489
    12  Cl   3.235050   4.028003   4.620606   4.889086   5.090916
    13  C    5.131583   5.714755   5.491995   6.839302   7.403471
    14  C    6.012588   6.538075   6.016175   7.762994   8.458346
    15  C    5.838686   6.374807   5.703638   7.702104   8.480935
    16  C    4.698074   5.319306   4.766977   6.686678   7.440938
    17  H    3.417080   2.133749   2.854657   1.091425   2.168525
    18  H    3.915722   3.403312   4.889747   2.158865   1.090467
    19  H    3.410528   3.869933   5.613175   3.396736   2.159504
    20  H    2.162650   3.416325   4.880211   3.885723   3.419884
    21  H    5.670403   6.210964   6.112522   7.196278   7.663690
    22  H    7.054056   7.525971   6.939801   8.713079   9.416741
    23  H    6.785223   7.268521   6.447500   8.613523   9.450927
    24  H    4.925005   5.520702   4.884156   6.907606   7.699169
                    6          7          8          9         10
     6  C    0.000000
     7  C    1.387842   0.000000
     8  N    3.647628   2.394887   0.000000
     9  N    4.827385   3.518462   1.212839   0.000000
    10  C    5.697926   4.431593   2.288468   1.440581   0.000000
    11  C    5.669430   4.526560   2.928295   2.553939   1.404323
    12  Cl   4.475208   3.533131   2.956266   3.231811   2.756796
    13  C    6.955969   5.873286   4.294339   3.793656   2.421131
    14  C    8.055611   6.901152   4.998885   4.226435   2.794236
    15  C    8.086784   6.849752   4.666340   3.675746   2.427232
    16  C    7.013529   5.737053   3.450602   2.369170   1.398272
    17  H    3.402724   3.886936   4.511128   5.573003   6.265333
    18  H    2.167593   3.416655   5.240913   6.451384   7.260078
    19  H    1.092268   2.137258   4.527433   5.652794   6.506674
    20  H    2.164192   1.090047   2.642523   3.528640   4.407017
    21  H    7.221680   6.261181   5.015897   4.690240   3.403648
    22  H    9.039743   7.920981   6.076958   5.317702   3.885975
    23  H    9.087440   7.838674   5.581112   4.523785   3.414309
    24  H    7.290929   6.002081   3.643776   2.485666   2.129637
                   11         12         13         14         15
    11  C    0.000000
    12  Cl   1.737292   0.000000
    13  C    1.394625   2.688350   0.000000
    14  C    2.417258   3.994682   1.392568   0.000000
    15  C    2.800597   4.536092   2.417934   1.394576   0.000000
    16  C    2.416424   4.038478   2.777622   2.401801   1.388754
    17  H    6.370756   5.700307   7.454791   8.314774   8.251185
    18  H    7.186866   6.014885   8.372646   9.460299   9.529471
    19  H    6.399871   5.065420   7.659597   8.814293   8.901605
    20  H    4.489148   3.496540   5.818282   6.842279   6.796476
    21  H    2.145791   2.794396   1.090916   2.164926   3.411165
    22  H    3.401466   4.837565   2.149720   1.091787   2.161839
    23  H    3.891765   5.627062   3.408893   2.163356   1.091172
    24  H    3.388576   4.884387   3.868646   3.406100   2.172490
                   16         17         18         19         20
    16  C    0.000000
    17  H    7.299425   0.000000
    18  H    8.514245   2.504021   0.000000
    19  H    7.844677   4.313178   2.500922   0.000000
    20  H    5.695631   4.976885   4.322627   2.475344   0.000000
    21  H    3.868331   7.792234   8.561451   7.847148   6.200694
    22  H    3.395462   9.217542  10.392032   9.779951   7.855560
    23  H    2.155010   9.112368  10.502491   9.918658   7.782197
    24  H    1.091784   7.498631   8.778301   8.137719   5.965480
                   21         22         23         24
    21  H    0.000000
    22  H    2.486873   0.000000
    23  H    4.316894   2.499329   0.000000
    24  H    4.959075   4.319080   2.513510   0.000000
 Symmetry turned off by external request.
 Stoichiometry    C12H8Cl2N2
 Framework group  C1[X(C12H8Cl2N2)]
 Deg. of freedom    66
 Full point group                 C1      NOp   1
 Rotational constants (GHZ):           0.8500660           0.2821059           0.2464269
 Leave Link  202 at Fri Mar  6 17:31:52 2026, MaxMem=  2415919104 cpu:               0.1 elap:               0.1
 (Enter /prod/precompiled/gaussian/16c2/g16/l301.exe)
 Standard basis: def2SVP (5D, 7F)
 Ernie: Thresh=  0.10000D-02 Tol=  0.10000D-05 Strict=F.
   272 basis functions,   480 primitive gaussians,   288 cartesian basis functions
    64 alpha electrons       64 beta electrons
       nuclear repulsion energy      1226.5837026538 Hartrees.
 IExCor= 4639 DFT=T Ex+Corr=wB97XD ExCW=0 ScaHFX=  1.000000
 ScaDFX=  1.000000  1.000000  1.000000  1.000000 ScalE2=  1.000000  1.000000
 IRadAn=      5 IRanWt=     -1 IRanGd=            0 ICorTp=0 IEmpDi=121
 HFx  wShort=  0.000000 wLong=  0.200000 cFull=  0.222036 cShort=  0.000000 cLong=  0.777964
 DFx  wShort=  0.000000 wLong=  0.200000 cFull=  0.000000 cShort=  0.000000 cLong=  1.000000
 NAtoms=   24 NActive=   24 NUniq=   24 SFac= 1.00D+00 NAtFMM=   60 NAOKFM=F Big=F
 Integral buffers will be    131072 words long.
 Raffenetti 2 integral format.
 Two-electron integral symmetry is turned off.
 R6Disp:  Grimme-D2 Dispersion energy=       -0.0145626490 Hartrees.
 Nuclear repulsion after empirical dispersion term =     1226.5691400048 Hartrees.
 Leave Link  301 at Fri Mar  6 17:31:52 2026, MaxMem=  2415919104 cpu:               0.1 elap:               0.1
 (Enter /prod/precompiled/gaussian/16c2/g16/l302.exe)
 NPDir=0 NMtPBC=     1 NCelOv=     1 NCel=       1 NClECP=     1 NCelD=      1
         NCelK=      1 NCelE2=     1 NClLst=     1 CellRange=     0.0.
 One-electron integrals computed using PRISM.
   1 Symmetry operations used in ECPInt.
 ECPInt:  NShTT=    7750 NPrTT=   30142 LenC2=    7116 LenP2D=   19307.
 LDataN:  DoStor=T MaxTD1= 4 Len=   56
 NBasis=   272 RedAO= T EigKep=  2.30D-04  NBF=   272
 NBsUse=   272 1.00D-06 EigRej= -1.00D+00 NBFU=   272
 Precomputing XC quadrature grid using
 IXCGrd= 4 IRadAn=           5 IRanWt=          -1 IRanGd=           0 AccXCQ= 0.00D+00.
 Generated NRdTot=       0 NPtTot=           0 NUsed=           0 NTot=          32
 NSgBfM=   285   285   285   285   285 MxSgAt=    24 MxSgA2=    24.
 Leave Link  302 at Fri Mar  6 17:31:53 2026, MaxMem=  2415919104 cpu:               1.5 elap:               0.4
 (Enter /prod/precompiled/gaussian/16c2/g16/l303.exe)
 DipDrv:  MaxL=1.
 Leave Link  303 at Fri Mar  6 17:31:53 2026, MaxMem=  2415919104 cpu:               0.1 elap:               0.1
 (Enter /prod/precompiled/gaussian/16c2/g16/l401.exe)
 ExpMin= 1.22D-01 ExpMax= 1.04D+04 ExpMxC= 1.57D+03 IAcc=3 IRadAn=         5 AccDes= 0.00D+00
 Harris functional with IExCor= 4639 and IRadAn=       5 diagonalized for initial guess.
 HarFok:  IExCor= 4639 AccDes= 0.00D+00 IRadAn=         5 IDoV= 1 UseB2=F ITyADJ=14
 ICtDFT=  3500011 ScaDFX=  1.000000  1.000000  1.000000  1.000000
 FoFCou: FMM=F IPFlag=           0 FMFlag=      100000 FMFlg1=           0
         NFxFlg=           0 DoJE=T BraDBF=F KetDBF=T FulRan=T
         wScrn=  0.000000 ICntrl=       500 IOpCl=  0 I1Cent=   200000004 NGrid=           0
         NMat0=    1 NMatS0=      1 NMatT0=    0 NMatD0=    1 NMtDS0=    0 NMtDT0=    0
 Symmetry not used in FoFCou.
 Harris En= -1450.78079813763    
 JPrj=0 DoOrth=F DoCkMO=F.
 Leave Link  401 at Fri Mar  6 17:31:54 2026, MaxMem=  2415919104 cpu:               7.8 elap:               0.9
 (Enter /prod/precompiled/gaussian/16c2/g16/l502.exe)
 Two-electron integral symmetry not used.
 Closed shell SCF:
 Using DIIS extrapolation, IDIIS=  1040.
 NGot=  2415919104 LenX=  2415746906 LenY=  2415663521
 Requested convergence on RMS density matrix=1.00D-08 within 200 cycles.
 Requested convergence on MAX density matrix=1.00D-06.
 Requested convergence on             energy=1.00D-06.
 No special actions if energy rises.
 Fock matrices will be formed incrementally for  20 cycles.
 Integral accuracy reduced to 1.0D-05 until final iterations.

 Cycle   1  Pass 0  IDiag  1:
 FoFJK:  IHMeth= 1 ICntrl=       0 DoSepK=T KAlg= 0 I1Cent=           0 FoldK=F
 IRaf=         1 NMat=       1 IRICut=       1 DoRegI=T DoRafI=F ISym2E= 0 IDoP0=0 IntGTp=1.
 FoFCou: FMM=F IPFlag=           0 FMFlag=      100000 FMFlg1=           0
         NFxFlg=           0 DoJE=T BraDBF=F KetDBF=F FulRan=T
         wScrn=  0.000000 ICntrl=       500 IOpCl=  0 I1Cent=           0 NGrid=           0
         NMat0=    1 NMatS0=      1 NMatT0=    0 NMatD0=    1 NMtDS0=    0 NMtDT0=    0
 Symmetry not used in FoFCou.
 E= -1490.42328436774    
 DIIS: error= 3.72D-02 at cycle   1 NSaved=   1.
 NSaved= 1 IEnMin= 1 EnMin= -1490.42328436774     IErMin= 1 ErrMin= 3.72D-02
 ErrMax= 3.72D-02  0.00D+00 EMaxC= 1.00D-01 BMatC= 8.30D-01 BMatP= 8.30D-01
 IDIUse=3 WtCom= 6.28D-01 WtEn= 3.72D-01
 Coeff-Com:  0.100D+01
 Coeff-En:   0.100D+01
 Coeff:      0.100D+01
 Gap=     0.216 Goal=   None    Shift=    0.000
 GapD=    0.216 DampG=1.000 DampE=0.500 DampFc=0.5000 IDamp=-1.
 Damping current iteration by 5.00D-01
 RMSDP=8.45D-03 MaxDP=2.86D-01              OVMax= 8.97D-01

 Cycle   2  Pass 0  IDiag  1:
 RMSU=  4.16D-03    CP:  9.73D-01
 E= -1490.28476934608     Delta-E=        0.138515021665 Rises=F Damp=T
 DIIS: error= 2.06D-02 at cycle   2 NSaved=   2.
 NSaved= 2 IEnMin= 1 EnMin= -1490.42328436774     IErMin= 2 ErrMin= 2.06D-02
 ErrMax= 2.06D-02  0.00D+00 EMaxC= 1.00D-01 BMatC= 2.32D-01 BMatP= 8.30D-01
 IDIUse=3 WtCom= 7.94D-01 WtEn= 2.06D-01
 Coeff-Com:  0.184D+00 0.816D+00
 Coeff-En:   0.599D+00 0.401D+00
 Coeff:      0.270D+00 0.730D+00
 Gap=    -0.268 Goal=   None    Shift=    0.000
 RMSDP=4.04D-03 MaxDP=1.34D-01 DE= 1.39D-01 OVMax= 5.75D-01

 Cycle   3  Pass 0  IDiag  1:
 RMSU=  3.89D-03    CP:  9.60D-01  7.51D-01
 E= -1490.67822954380     Delta-E=       -0.393460197724 Rises=F Damp=F
 DIIS: error= 2.56D-02 at cycle   3 NSaved=   3.
 NSaved= 3 IEnMin= 3 EnMin= -1490.67822954380     IErMin= 2 ErrMin= 2.06D-02
 ErrMax= 2.56D-02  0.00D+00 EMaxC= 1.00D-01 BMatC= 2.45D-01 BMatP= 2.32D-01
 IDIUse=3 WtCom= 7.44D-01 WtEn= 2.56D-01
 Coeff-Com: -0.930D-01 0.546D+00 0.547D+00
 Coeff-En:   0.000D+00 0.224D+00 0.776D+00
 Coeff:     -0.691D-01 0.464D+00 0.605D+00
 Gap=     0.299 Goal=   None    Shift=    0.000
 RMSDP=2.62D-03 MaxDP=7.31D-02 DE=-3.93D-01 OVMax= 2.55D-01

 Cycle   4  Pass 0  IDiag  1:
 RMSU=  2.02D-03    CP:  9.53D-01  8.89D-01  6.00D-01
 E= -1490.97207757205     Delta-E=       -0.293848028251 Rises=F Damp=F
 DIIS: error= 3.33D-03 at cycle   4 NSaved=   4.
 NSaved= 4 IEnMin= 4 EnMin= -1490.97207757205     IErMin= 4 ErrMin= 3.33D-03
 ErrMax= 3.33D-03  0.00D+00 EMaxC= 1.00D-01 BMatC= 5.63D-03 BMatP= 2.32D-01
 IDIUse=3 WtCom= 9.67D-01 WtEn= 3.33D-02
 Coeff-Com: -0.619D-01 0.120D+00 0.119D+00 0.822D+00
 Coeff-En:   0.000D+00 0.000D+00 0.000D+00 0.100D+01
 Coeff:     -0.599D-01 0.116D+00 0.115D+00 0.828D+00
 Gap=     0.203 Goal=   None    Shift=    0.000
 RMSDP=6.10D-04 MaxDP=2.18D-02 DE=-2.94D-01 OVMax= 5.45D-02

 Cycle   5  Pass 0  IDiag  1:
 RMSU=  4.99D-04    CP:  9.50D-01  9.58D-01  6.43D-01  1.03D+00
 E= -1490.98114144162     Delta-E=       -0.009063869566 Rises=F Damp=F
 DIIS: error= 2.37D-03 at cycle   5 NSaved=   5.
 NSaved= 5 IEnMin= 5 EnMin= -1490.98114144162     IErMin= 5 ErrMin= 2.37D-03
 ErrMax= 2.37D-03  0.00D+00 EMaxC= 1.00D-01 BMatC= 1.24D-03 BMatP= 5.63D-03
 IDIUse=3 WtCom= 9.76D-01 WtEn= 2.37D-02
 Coeff-Com: -0.129D-01 0.911D-02-0.215D-01 0.255D+00 0.770D+00
 Coeff-En:   0.000D+00 0.000D+00 0.000D+00 0.000D+00 0.100D+01
 Coeff:     -0.126D-01 0.890D-02-0.209D-01 0.249D+00 0.776D+00
 Gap=     0.215 Goal=   None    Shift=    0.000
 RMSDP=2.90D-04 MaxDP=6.11D-03 DE=-9.06D-03 OVMax= 3.52D-02

 Cycle   6  Pass 0  IDiag  1:
 RMSU=  2.07D-04    CP:  9.49D-01  9.74D-01  6.25D-01  1.12D+00  1.11D+00
 E= -1490.98352656875     Delta-E=       -0.002385127127 Rises=F Damp=F
 DIIS: error= 5.90D-04 at cycle   6 NSaved=   6.
 NSaved= 6 IEnMin= 6 EnMin= -1490.98352656875     IErMin= 6 ErrMin= 5.90D-04
 ErrMax= 5.90D-04  0.00D+00 EMaxC= 1.00D-01 BMatC= 2.32D-04 BMatP= 1.24D-03
 IDIUse=3 WtCom= 9.94D-01 WtEn= 5.90D-03
 Coeff-Com:  0.835D-02-0.167D-01-0.210D-01-0.569D-01 0.287D+00 0.799D+00
 Coeff-En:   0.000D+00 0.000D+00 0.000D+00 0.000D+00 0.000D+00 0.100D+01
 Coeff:      0.831D-02-0.166D-01-0.209D-01-0.566D-01 0.286D+00 0.800D+00
 Gap=     0.222 Goal=   None    Shift=    0.000
 RMSDP=1.41D-04 MaxDP=3.20D-03 DE=-2.39D-03 OVMax= 1.81D-02

 Cycle   7  Pass 0  IDiag  1:
 RMSU=  1.01D-04    CP:  9.49D-01  9.73D-01  6.25D-01  1.13D+00  1.29D+00
                    CP:  1.15D+00
 E= -1490.98396805455     Delta-E=       -0.000441485805 Rises=F Damp=F
 DIIS: error= 4.27D-04 at cycle   7 NSaved=   7.
 NSaved= 7 IEnMin= 7 EnMin= -1490.98396805455     IErMin= 7 ErrMin= 4.27D-04
 ErrMax= 4.27D-04  0.00D+00 EMaxC= 1.00D-01 BMatC= 1.02D-04 BMatP= 2.32D-04
 IDIUse=3 WtCom= 9.96D-01 WtEn= 4.27D-03
 Coeff-Com:  0.703D-02-0.116D-01 0.184D-02-0.602D-01-0.647D-02 0.341D+00
 Coeff-Com:  0.729D+00
 Coeff-En:   0.000D+00 0.000D+00 0.000D+00 0.000D+00 0.000D+00 0.000D+00
 Coeff-En:   0.100D+01
 Coeff:      0.700D-02-0.115D-01 0.183D-02-0.600D-01-0.644D-02 0.339D+00
 Coeff:      0.730D+00
 Gap=     0.223 Goal=   None    Shift=    0.000
 RMSDP=6.54D-05 MaxDP=1.84D-03 DE=-4.41D-04 OVMax= 5.24D-03

 Cycle   8  Pass 0  IDiag  1:
 RMSU=  3.96D-05    CP:  9.49D-01  9.70D-01  6.29D-01  1.14D+00  1.32D+00
                    CP:  1.34D+00  1.20D+00
 E= -1490.98408819406     Delta-E=       -0.000120139514 Rises=F Damp=F
 DIIS: error= 3.20D-04 at cycle   8 NSaved=   8.
 NSaved= 8 IEnMin= 8 EnMin= -1490.98408819406     IErMin= 8 ErrMin= 3.20D-04
 ErrMax= 3.20D-04  0.00D+00 EMaxC= 1.00D-01 BMatC= 2.64D-05 BMatP= 1.02D-04
 IDIUse=3 WtCom= 9.97D-01 WtEn= 3.20D-03
 Coeff-Com:  0.113D-02-0.191D-02 0.113D-01-0.266D-02-0.784D-01-0.753D-01
 Coeff-Com:  0.289D+00 0.857D+00
 Coeff-En:   0.000D+00 0.000D+00 0.000D+00 0.000D+00 0.000D+00 0.000D+00
 Coeff-En:   0.000D+00 0.100D+01
 Coeff:      0.113D-02-0.190D-02 0.112D-01-0.265D-02-0.781D-01-0.750D-01
 Coeff:      0.288D+00 0.857D+00
 Gap=     0.223 Goal=   None    Shift=    0.000
 RMSDP=4.18D-05 MaxDP=1.15D-03 DE=-1.20D-04 OVMax= 2.59D-03

 Cycle   9  Pass 0  IDiag  1:
 RMSU=  2.07D-05    CP:  9.49D-01  9.68D-01  6.32D-01  1.13D+00  1.34D+00
                    CP:  1.43D+00  1.44D+00  1.19D+00
 E= -1490.98412536881     Delta-E=       -0.000037174744 Rises=F Damp=F
 DIIS: error= 8.53D-05 at cycle   9 NSaved=   9.
 NSaved= 9 IEnMin= 9 EnMin= -1490.98412536881     IErMin= 9 ErrMin= 8.53D-05
 ErrMax= 8.53D-05  0.00D+00 EMaxC= 1.00D-01 BMatC= 3.05D-06 BMatP= 2.64D-05
 IDIUse=1 WtCom= 1.00D+00 WtEn= 0.00D+00
 Coeff-Com: -0.460D-03 0.422D-03 0.378D-02 0.105D-01-0.213D-01-0.777D-01
 Coeff-Com: -0.474D-01 0.351D+00 0.781D+00
 Coeff:     -0.460D-03 0.422D-03 0.378D-02 0.105D-01-0.213D-01-0.777D-01
 Coeff:     -0.474D-01 0.351D+00 0.781D+00
 Gap=     0.223 Goal=   None    Shift=    0.000
 RMSDP=1.40D-05 MaxDP=2.67D-04 DE=-3.72D-05 OVMax= 9.04D-04

 Cycle  10  Pass 0  IDiag  1:
 RMSU=  8.33D-06    CP:  9.49D-01  9.67D-01  6.33D-01  1.13D+00  1.34D+00
                    CP:  1.45D+00  1.51D+00  1.35D+00  9.89D-01
 E= -1490.98412987069     Delta-E=       -0.000004501880 Rises=F Damp=F
 DIIS: error= 2.58D-05 at cycle  10 NSaved=  10.
 NSaved=10 IEnMin=10 EnMin= -1490.98412987069     IErMin=10 ErrMin= 2.58D-05
 ErrMax= 2.58D-05  0.00D+00 EMaxC= 1.00D-01 BMatC= 3.12D-07 BMatP= 3.05D-06
 IDIUse=1 WtCom= 1.00D+00 WtEn= 0.00D+00
 Coeff-Com: -0.187D-03 0.300D-03-0.424D-03 0.293D-02 0.347D-02-0.793D-02
 Coeff-Com: -0.490D-01 0.130D-01 0.277D+00 0.761D+00
 Coeff:     -0.187D-03 0.300D-03-0.424D-03 0.293D-02 0.347D-02-0.793D-02
 Coeff:     -0.490D-01 0.130D-01 0.277D+00 0.761D+00
 Gap=     0.223 Goal=   None    Shift=    0.000
 RMSDP=4.26D-06 MaxDP=8.58D-05 DE=-4.50D-06 OVMax= 3.06D-04

 Initial convergence to 1.0D-05 achieved.  Increase integral accuracy.
 Cycle  11  Pass 1  IDiag  1:
 E= -1490.98411061925     Delta-E=        0.000019251440 Rises=F Damp=F
 DIIS: error= 7.69D-05 at cycle   1 NSaved=   1.
 NSaved= 1 IEnMin= 1 EnMin= -1490.98411061925     IErMin= 1 ErrMin= 7.69D-05
 ErrMax= 7.69D-05  0.00D+00 EMaxC= 1.00D-01 BMatC= 1.04D-06 BMatP= 1.04D-06
 IDIUse=1 WtCom= 1.00D+00 WtEn= 0.00D+00
 Coeff-Com:  0.100D+01
 Coeff:      0.100D+01
 Gap=     0.223 Goal=   None    Shift=    0.000
 RMSDP=4.26D-06 MaxDP=8.58D-05 DE= 1.93D-05 OVMax= 3.08D-04

 Cycle  12  Pass 1  IDiag  1:
 RMSU=  8.74D-05    CP:  1.00D+00
 E= -1490.98411163885     Delta-E=       -0.000001019600 Rises=F Damp=F
 DIIS: error= 9.91D-06 at cycle   2 NSaved=   2.
 NSaved= 2 IEnMin= 2 EnMin= -1490.98411163885     IErMin= 2 ErrMin= 9.91D-06
 ErrMax= 9.91D-06  0.00D+00 EMaxC= 1.00D-01 BMatC= 5.57D-08 BMatP= 1.04D-06
 IDIUse=1 WtCom= 1.00D+00 WtEn= 0.00D+00
 Coeff-Com:  0.375D-01 0.962D+00
 Coeff:      0.375D-01 0.962D+00
 Gap=     0.223 Goal=   None    Shift=    0.000
 RMSDP=5.54D-06 MaxDP=1.02D-04 DE=-1.02D-06 OVMax= 1.55D-04

 Cycle  13  Pass 1  IDiag  1:
 RMSU=  2.52D-06    CP:  1.00D+00  1.06D+00
 E= -1490.98411167414     Delta-E=       -0.000000035297 Rises=F Damp=F
 DIIS: error= 9.19D-06 at cycle   3 NSaved=   3.
 NSaved= 3 IEnMin= 3 EnMin= -1490.98411167414     IErMin= 3 ErrMin= 9.19D-06
 ErrMax= 9.19D-06  0.00D+00 EMaxC= 1.00D-01 BMatC= 5.14D-08 BMatP= 5.57D-08
 IDIUse=1 WtCom= 1.00D+00 WtEn= 0.00D+00
 Coeff-Com: -0.308D-01 0.498D+00 0.533D+00
 Coeff:     -0.308D-01 0.498D+00 0.533D+00
 Gap=     0.223 Goal=   None    Shift=    0.000
 RMSDP=1.34D-06 MaxDP=3.20D-05 DE=-3.53D-08 OVMax= 1.01D-04

 Cycle  14  Pass 1  IDiag  1:
 RMSU=  1.06D-06    CP:  1.00D+00  1.06D+00  8.06D-01
 E= -1490.98411173437     Delta-E=       -0.000000060229 Rises=F Damp=F
 DIIS: error= 2.01D-06 at cycle   4 NSaved=   4.
 NSaved= 4 IEnMin= 4 EnMin= -1490.98411173437     IErMin= 4 ErrMin= 2.01D-06
 ErrMax= 2.01D-06  0.00D+00 EMaxC= 1.00D-01 BMatC= 1.60D-09 BMatP= 5.14D-08
 IDIUse=1 WtCom= 1.00D+00 WtEn= 0.00D+00
 Coeff-Com: -0.888D-02 0.561D-01 0.118D+00 0.835D+00
 Coeff:     -0.888D-02 0.561D-01 0.118D+00 0.835D+00
 Gap=     0.223 Goal=   None    Shift=    0.000
 RMSDP=4.81D-07 MaxDP=1.30D-05 DE=-6.02D-08 OVMax= 5.93D-05

 Cycle  15  Pass 1  IDiag  1:
 RMSU=  3.71D-07    CP:  1.00D+00  1.06D+00  8.89D-01  1.19D+00
 E= -1490.98411174124     Delta-E=       -0.000000006864 Rises=F Damp=F
 DIIS: error= 1.20D-06 at cycle   5 NSaved=   5.
 NSaved= 5 IEnMin= 5 EnMin= -1490.98411174124     IErMin= 5 ErrMin= 1.20D-06
 ErrMax= 1.20D-06  0.00D+00 EMaxC= 1.00D-01 BMatC= 6.14D-10 BMatP= 1.60D-09
 IDIUse=1 WtCom= 1.00D+00 WtEn= 0.00D+00
 Coeff-Com:  0.762D-02-0.150D+00-0.138D+00 0.263D+00 0.102D+01
 Coeff:      0.762D-02-0.150D+00-0.138D+00 0.263D+00 0.102D+01
 Gap=     0.223 Goal=   None    Shift=    0.000
 RMSDP=4.99D-07 MaxDP=1.61D-05 DE=-6.86D-09 OVMax= 7.29D-05

 Cycle  16  Pass 1  IDiag  1:
 RMSU=  2.41D-07    CP:  1.00D+00  1.07D+00  9.58D-01  1.49D+00  1.65D+00
 E= -1490.98411174589     Delta-E=       -0.000000004653 Rises=F Damp=F
 DIIS: error= 8.01D-07 at cycle   6 NSaved=   6.
 NSaved= 6 IEnMin= 6 EnMin= -1490.98411174589     IErMin= 6 ErrMin= 8.01D-07
 ErrMax= 8.01D-07  0.00D+00 EMaxC= 1.00D-01 BMatC= 1.79D-10 BMatP= 6.14D-10
 IDIUse=1 WtCom= 1.00D+00 WtEn= 0.00D+00
 Coeff-Com:  0.476D-02-0.717D-01-0.740D-01-0.615D-01 0.373D+00 0.829D+00
 Coeff:      0.476D-02-0.717D-01-0.740D-01-0.615D-01 0.373D+00 0.829D+00
 Gap=     0.223 Goal=   None    Shift=    0.000
 RMSDP=2.65D-07 MaxDP=1.08D-05 DE=-4.65D-09 OVMax= 4.31D-05

 Cycle  17  Pass 1  IDiag  1:
 RMSU=  9.79D-08    CP:  1.00D+00  1.07D+00  9.88D-01  1.60D+00  2.07D+00
                    CP:  1.53D+00
 E= -1490.98411174735     Delta-E=       -0.000000001462 Rises=F Damp=F
 DIIS: error= 5.58D-07 at cycle   7 NSaved=   7.
 NSaved= 7 IEnMin= 7 EnMin= -1490.98411174735     IErMin= 7 ErrMin= 5.58D-07
 ErrMax= 5.58D-07  0.00D+00 EMaxC= 1.00D-01 BMatC= 7.80D-11 BMatP= 1.79D-10
 IDIUse=1 WtCom= 1.00D+00 WtEn= 0.00D+00
 Coeff-Com: -0.629D-03 0.227D-01 0.202D-01-0.120D+00-0.229D+00 0.365D+00
 Coeff-Com:  0.943D+00
 Coeff:     -0.629D-03 0.227D-01 0.202D-01-0.120D+00-0.229D+00 0.365D+00
 Coeff:      0.943D+00
 Gap=     0.223 Goal=   None    Shift=    0.000
 RMSDP=2.32D-07 MaxDP=9.67D-06 DE=-1.46D-09 OVMax= 3.90D-05

 Cycle  18  Pass 1  IDiag  1:
 RMSU=  7.45D-08    CP:  1.00D+00  1.07D+00  1.01D+00  1.67D+00  2.45D+00
                    CP:  2.09D+00  1.56D+00
 E= -1490.98411174818     Delta-E=       -0.000000000822 Rises=F Damp=F
 DIIS: error= 3.50D-07 at cycle   8 NSaved=   8.
 NSaved= 8 IEnMin= 8 EnMin= -1490.98411174818     IErMin= 8 ErrMin= 3.50D-07
 ErrMax= 3.50D-07  0.00D+00 EMaxC= 1.00D-01 BMatC= 3.11D-11 BMatP= 7.80D-11
 IDIUse=1 WtCom= 1.00D+00 WtEn= 0.00D+00
 Coeff-Com: -0.199D-02 0.364D-01 0.373D-01-0.321D-01-0.245D+00-0.129D+00
 Coeff-Com:  0.441D+00 0.893D+00
 Coeff:     -0.199D-02 0.364D-01 0.373D-01-0.321D-01-0.245D+00-0.129D+00
 Coeff:      0.441D+00 0.893D+00
 Gap=     0.223 Goal=   None    Shift=    0.000
 RMSDP=1.60D-07 MaxDP=6.79D-06 DE=-8.22D-10 OVMax= 2.80D-05

 Cycle  19  Pass 1  IDiag  1:
 RMSU=  3.87D-08    CP:  1.00D+00  1.07D+00  1.02D+00  1.72D+00  2.67D+00
                    CP:  2.46D+00  2.18D+00  1.65D+00
 E= -1490.98411174859     Delta-E=       -0.000000000417 Rises=F Damp=F
 DIIS: error= 2.15D-07 at cycle   9 NSaved=   9.
 NSaved= 9 IEnMin= 9 EnMin= -1490.98411174859     IErMin= 9 ErrMin= 2.15D-07
 ErrMax= 2.15D-07  0.00D+00 EMaxC= 1.00D-01 BMatC= 9.93D-12 BMatP= 3.11D-11
 IDIUse=1 WtCom= 1.00D+00 WtEn= 0.00D+00
 Coeff-Com: -0.102D-03-0.415D-02-0.270D-02 0.494D-01 0.650D-01-0.200D+00
 Coeff-Com: -0.402D+00 0.168D+00 0.133D+01
 Coeff:     -0.102D-03-0.415D-02-0.270D-02 0.494D-01 0.650D-01-0.200D+00
 Coeff:     -0.402D+00 0.168D+00 0.133D+01
 Gap=     0.223 Goal=   None    Shift=    0.000
 RMSDP=1.60D-07 MaxDP=6.22D-06 DE=-4.17D-10 OVMax= 2.80D-05

 Cycle  20  Pass 1  IDiag  1:
 RMSU=  2.26D-08    CP:  1.00D+00  1.07D+00  1.03D+00  1.76D+00  2.87D+00
                    CP:  2.80D+00  2.83D+00  2.55D+00  1.75D+00
 E= -1490.98411174876     Delta-E=       -0.000000000162 Rises=F Damp=F
 DIIS: error= 7.01D-08 at cycle  10 NSaved=  10.
 NSaved=10 IEnMin=10 EnMin= -1490.98411174876     IErMin=10 ErrMin= 7.01D-08
 ErrMax= 7.01D-08  0.00D+00 EMaxC= 1.00D-01 BMatC= 2.55D-12 BMatP= 9.93D-12
 IDIUse=1 WtCom= 1.00D+00 WtEn= 0.00D+00
 Coeff-Com:  0.518D-03-0.123D-01-0.120D-01 0.307D-01 0.993D-01-0.477D-01
 Coeff-Com: -0.313D+00-0.185D+00 0.563D+00 0.876D+00
 Coeff:      0.518D-03-0.123D-01-0.120D-01 0.307D-01 0.993D-01-0.477D-01
 Coeff:     -0.313D+00-0.185D+00 0.563D+00 0.876D+00
 Gap=     0.223 Goal=   None    Shift=    0.000
 RMSDP=6.76D-08 MaxDP=2.61D-06 DE=-1.62D-10 OVMax= 1.18D-05

 Cycle  21  Pass 1  IDiag  1:
 RMSU=  1.27D-08    CP:  1.00D+00  1.07D+00  1.04D+00  1.78D+00  2.96D+00
                    CP:  2.93D+00  3.00D+00  2.98D+00  2.18D+00  1.37D+00
 E= -1490.98411174880     Delta-E=       -0.000000000048 Rises=F Damp=F
 DIIS: error= 2.13D-08 at cycle  11 NSaved=  11.
 NSaved=11 IEnMin=11 EnMin= -1490.98411174880     IErMin=11 ErrMin= 2.13D-08
 ErrMax= 2.13D-08  0.00D+00 EMaxC= 1.00D-01 BMatC= 2.73D-13 BMatP= 2.55D-12
 IDIUse=1 WtCom= 1.00D+00 WtEn= 0.00D+00
 Coeff-Com:  0.165D-03-0.274D-02-0.310D-02 0.597D-03 0.161D-01 0.197D-01
 Coeff-Com: -0.155D-01-0.764D-01-0.686D-01 0.226D+00 0.904D+00
 Coeff:      0.165D-03-0.274D-02-0.310D-02 0.597D-03 0.161D-01 0.197D-01
 Coeff:     -0.155D-01-0.764D-01-0.686D-01 0.226D+00 0.904D+00
 Gap=     0.223 Goal=   None    Shift=    0.000
 RMSDP=1.51D-08 MaxDP=5.58D-07 DE=-4.82D-11 OVMax= 2.46D-06

 Cycle  22  Pass 1  IDiag  1:
 RMSU=  6.42D-09    CP:  1.00D+00  1.07D+00  1.04D+00  1.78D+00  2.97D+00
                    CP:  2.95D+00  3.00D+00  3.00D+00  2.32D+00  1.61D+00
                    CP:  1.35D+00
 E= -1490.98411174881     Delta-E=       -0.000000000002 Rises=F Damp=F
 DIIS: error= 1.01D-08 at cycle  12 NSaved=  12.
 NSaved=12 IEnMin=12 EnMin= -1490.98411174881     IErMin=12 ErrMin= 1.01D-08
 ErrMax= 1.01D-08  0.00D+00 EMaxC= 1.00D-01 BMatC= 4.26D-14 BMatP= 2.73D-13
 IDIUse=1 WtCom= 1.00D+00 WtEn= 0.00D+00
 Coeff-Com: -0.275D-04 0.103D-02 0.781D-03-0.419D-02-0.102D-01 0.131D-01
 Coeff-Com:  0.434D-01 0.533D-02-0.109D+00-0.602D-01 0.282D+00 0.837D+00
 Coeff:     -0.275D-04 0.103D-02 0.781D-03-0.419D-02-0.102D-01 0.131D-01
 Coeff:      0.434D-01 0.533D-02-0.109D+00-0.602D-01 0.282D+00 0.837D+00
 Gap=     0.223 Goal=   None    Shift=    0.000
 RMSDP=3.34D-09 MaxDP=8.92D-08 DE=-2.27D-12 OVMax= 4.37D-07

 SCF Done:  E(RwB97XD) =  -1490.98411175     A.U. after   22 cycles
            NFock= 22  Conv=0.33D-08     -V/T= 2.0053
 KE= 1.483120772128D+03 PE=-5.963265641250D+03 EE= 1.762591617368D+03
 Leave Link  502 at Fri Mar  6 17:32:27 2026, MaxMem=  2415919104 cpu:             246.7 elap:              33.2
 (Enter /prod/precompiled/gaussian/16c2/g16/l508.exe)
 QCSCF skips out because SCF is already converged.
 Leave Link  508 at Fri Mar  6 17:32:27 2026, MaxMem=  2415919104 cpu:               0.0 elap:               0.1
 (Enter /prod/precompiled/gaussian/16c2/g16/l801.exe)
 DoSCS=F DFT=T ScalE2(SS,OS)=  1.000000  1.000000
 Range of M.O.s used for correlation:     1   272
 NBasis=   272 NAE=    64 NBE=    64 NFC=     0 NFV=     0
 NROrb=    272 NOA=    64 NOB=    64 NVA=   208 NVB=   208

 **** Warning!!: The largest alpha MO coefficient is  0.14181487D+02

 Leave Link  801 at Fri Mar  6 17:32:27 2026, MaxMem=  2415919104 cpu:               0.1 elap:               0.1
 (Enter /prod/precompiled/gaussian/16c2/g16/l1101.exe)
 Using compressed storage, NAtomX=    24.
 Will process     25 centers per pass.
   1 Symmetry operations used in ECPInt.
 ECPInt:  NShTT=    7750 NPrTT=   30142 LenC2=    7116 LenP2D=   19307.
 LDataN:  DoStor=T MaxTD1= 5 Len=  102
 R6Disp: Adding Grimme-D2 dispersion energy 1st derivatives to the gradient.
 Leave Link 1101 at Fri Mar  6 17:32:28 2026, MaxMem=  2415919104 cpu:               1.7 elap:               0.4
 (Enter /prod/precompiled/gaussian/16c2/g16/l1102.exe)
 Symmetrizing basis deriv contribution to polar:
 IMax=3 JMax=2 DiffMx= 0.00D+00
 Leave Link 1102 at Fri Mar  6 17:32:28 2026, MaxMem=  2415919104 cpu:               0.3 elap:               0.2
 (Enter /prod/precompiled/gaussian/16c2/g16/l1110.exe)
 Forming Gx(P) for the SCF density, NAtomX=    24.
 Integral derivatives from FoFJK, PRISM(SPDF).
 Do as many integral derivatives as possible in FoFJK.
 G2DrvN: MDV=    2415916544.
 G2DrvN: will do    25 centers at a time, making    1 passes.
 Calling FoFCou, ICntrl=  3107 FMM=F I1Cent=   0 AccDes= 0.00D+00.
 FoFJK:  IHMeth= 1 ICntrl=    3107 DoSepK=T KAlg= 0 I1Cent=           0 FoldK=F
 IRaf=         1 NMat=       1 IRICut=       1 DoRegI=T DoRafI=F ISym2E= 0 IDoP0=0 IntGTp=1.
 FoFCou: FMM=F IPFlag=           0 FMFlag=      100000 FMFlg1=           0
         NFxFlg=           0 DoJE=F BraDBF=F KetDBF=F FulRan=T
         wScrn=  0.000000 ICntrl=      3507 IOpCl=  0 I1Cent=           0 NGrid=           0
         NMat0=    1 NMatS0=      1 NMatT0=    0 NMatD0=    1 NMtDS0=    0 NMtDT0=    0
 Symmetry not used in FoFCou.
 End of G2Drv F.D. properties file   721 does not exist.
 End of G2Drv F.D. properties file   722 does not exist.
 End of G2Drv F.D. properties file   788 does not exist.
 Leave Link 1110 at Fri Mar  6 17:32:54 2026, MaxMem=  2415919104 cpu:             229.6 elap:              26.3
 (Enter /prod/precompiled/gaussian/16c2/g16/l1002.exe)
 Minotr:  Closed shell wavefunction.
          IDoAtm=111111111111111111111111
          Direct CPHF calculation.
          Differentiating once with respect to electric field.
                with respect to dipole field.
          Differentiating once with respect to nuclear coordinates.
          Requested convergence is 1.0D-08 RMS, and 1.0D-07 maximum.
          Secondary convergence is 1.0D-12 RMS, and 1.0D-12 maximum.
          NewPWx=T KeepS1=F KeepF1=F KeepIn=T MapXYZ=F SortEE=F KeepMc=T.
         7195 words used for storage of precomputed grid.
 Keep R1 ints in memory in canonical form, NReq=1402150885.
 FoFCou: FMM=F IPFlag=           0 FMFlag=           0 FMFlg1=           0
         NFxFlg=           0 DoJE=F BraDBF=F KetDBF=F FulRan=T
         wScrn=  0.000000 ICntrl=       600 IOpCl=  0 I1Cent=           0 NGrid=           0
         NMat0=    1 NMatS0=  37128 NMatT0=    0 NMatD0=    1 NMtDS0=    0 NMtDT0=    0
 Symmetry not used in FoFCou.
 Two-electron integral symmetry not used.
          MDV=    2415919104 using IRadAn=       1.
          Solving linear equations simultaneously, MaxMat=       0.
          There are    75 degrees of freedom in the 1st order CPHF.  IDoFFX=6 NUNeed=     3.
     72 vectors produced by pass  0 Test12= 1.77D-14 1.33D-09 XBig12= 1.26D+02 5.56D+00.
 AX will form    72 AO Fock derivatives at one time.
     72 vectors produced by pass  1 Test12= 1.77D-14 1.33D-09 XBig12= 1.09D+01 5.49D-01.
     72 vectors produced by pass  2 Test12= 1.77D-14 1.33D-09 XBig12= 4.19D-01 7.98D-02.
     72 vectors produced by pass  3 Test12= 1.77D-14 1.33D-09 XBig12= 7.41D-03 9.78D-03.
     72 vectors produced by pass  4 Test12= 1.77D-14 1.33D-09 XBig12= 7.43D-05 8.98D-04.
     72 vectors produced by pass  5 Test12= 1.77D-14 1.33D-09 XBig12= 4.54D-07 7.02D-05.
     70 vectors produced by pass  6 Test12= 1.77D-14 1.33D-09 XBig12= 2.56D-09 7.14D-06.
     40 vectors produced by pass  7 Test12= 1.77D-14 1.33D-09 XBig12= 1.25D-11 4.05D-07.
      4 vectors produced by pass  8 Test12= 1.77D-14 1.33D-09 XBig12= 6.27D-14 2.38D-08.
      2 vectors produced by pass  9 Test12= 1.77D-14 1.33D-09 XBig12= 3.12D-16 1.85D-09.
 InvSVY:  IOpt=1 It=  1 EMax= 3.55D-15
 Solved reduced A of dimension   548 with    75 vectors.
 FullF1:  Do perturbations      1 to       3.
 Isotropic polarizability for W=    0.000000      169.90 Bohr**3.
 End of Minotr F.D. properties file   721 does not exist.
 End of Minotr F.D. properties file   722 does not exist.
 End of Minotr F.D. properties file   788 does not exist.
 Leave Link 1002 at Fri Mar  6 17:33:54 2026, MaxMem=  2415919104 cpu:             461.7 elap:              60.0
 (Enter /prod/precompiled/gaussian/16c2/g16/l601.exe)
 Copying SCF densities to generalized density rwf, IOpCl= 0 IROHF=0.

 **********************************************************************

            Population analysis using the SCF Density.

 **********************************************************************

 Alpha  occ. eigenvalues -- -101.69468-101.67285 -14.54634 -14.51915 -10.38540
 Alpha  occ. eigenvalues --  -10.38034 -10.35867 -10.35024 -10.33470 -10.33349
 Alpha  occ. eigenvalues --  -10.33278 -10.32890 -10.30882 -10.30491 -10.30342
 Alpha  occ. eigenvalues --  -10.29161  -9.60210  -9.58050  -7.35609  -7.34626
 Alpha  occ. eigenvalues --   -7.34574  -7.33437  -7.32456  -7.32445  -1.16991
 Alpha  occ. eigenvalues --   -1.01447  -0.99797  -0.95677  -0.93767  -0.91566
 Alpha  occ. eigenvalues --   -0.87457  -0.84749  -0.82682  -0.78335  -0.74355
 Alpha  occ. eigenvalues --   -0.72603  -0.70277  -0.66840  -0.65093  -0.60690
 Alpha  occ. eigenvalues --   -0.59429  -0.58402  -0.57737  -0.55212  -0.54251
 Alpha  occ. eigenvalues --   -0.53616  -0.52837  -0.52440  -0.51057  -0.48805
 Alpha  occ. eigenvalues --   -0.48052  -0.47725  -0.45980  -0.45509  -0.43775
 Alpha  occ. eigenvalues --   -0.43475  -0.41826  -0.40811  -0.39019  -0.36696
 Alpha  occ. eigenvalues --   -0.35687  -0.34049  -0.32286  -0.25056
 Alpha virt. eigenvalues --   -0.02733   0.03267   0.05889   0.06489   0.07785
 Alpha virt. eigenvalues --    0.10606   0.12125   0.15151   0.17142   0.17557
 Alpha virt. eigenvalues --    0.19017   0.20762   0.21182   0.21851   0.22180
 Alpha virt. eigenvalues --    0.23382   0.23558   0.25506   0.29825   0.32516
 Alpha virt. eigenvalues --    0.33427   0.34287   0.35038   0.35840   0.36345
 Alpha virt. eigenvalues --    0.37224   0.38916   0.40265   0.41142   0.44963
 Alpha virt. eigenvalues --    0.45815   0.46286   0.47113   0.49412   0.50117
 Alpha virt. eigenvalues --    0.51340   0.52129   0.52691   0.53198   0.53916
 Alpha virt. eigenvalues --    0.55214   0.55435   0.55749   0.57627   0.58554
 Alpha virt. eigenvalues --    0.59686   0.59783   0.60180   0.61360   0.62352
 Alpha virt. eigenvalues --    0.64074   0.65433   0.65937   0.67673   0.67942
 Alpha virt. eigenvalues --    0.69504   0.69603   0.71324   0.72290   0.73103
 Alpha virt. eigenvalues --    0.73484   0.74200   0.74318   0.74917   0.76533
 Alpha virt. eigenvalues --    0.77206   0.77495   0.78222   0.78738   0.79048
 Alpha virt. eigenvalues --    0.79514   0.80487   0.80996   0.82572   0.82944
 Alpha virt. eigenvalues --    0.83686   0.85681   0.86627   0.87335   0.88442
 Alpha virt. eigenvalues --    0.88821   0.89434   0.90769   0.91616   0.92183
 Alpha virt. eigenvalues --    0.94072   0.94233   0.95644   0.95974   0.98972
 Alpha virt. eigenvalues --    1.02074   1.02697   1.02997   1.05184   1.06839
 Alpha virt. eigenvalues --    1.10061   1.11436   1.13641   1.15867   1.18975
 Alpha virt. eigenvalues --    1.21720   1.22989   1.24380   1.24946   1.28306
 Alpha virt. eigenvalues --    1.30195   1.31384   1.31704   1.32472   1.32674
 Alpha virt. eigenvalues --    1.34691   1.35366   1.35634   1.36572   1.36998
 Alpha virt. eigenvalues --    1.38986   1.39272   1.45581   1.48502   1.50380
 Alpha virt. eigenvalues --    1.55941   1.58035   1.58390   1.59315   1.63206
 Alpha virt. eigenvalues --    1.67496   1.72788   1.74572   1.76228   1.77074
 Alpha virt. eigenvalues --    1.79132   1.79656   1.80192   1.82100   1.83154
 Alpha virt. eigenvalues --    1.83537   1.84184   1.84778   1.85119   1.86901
 Alpha virt. eigenvalues --    1.88612   1.89068   1.89904   1.92329   1.95481
 Alpha virt. eigenvalues --    1.97928   1.98242   2.00130   2.01062   2.01630
 Alpha virt. eigenvalues --    2.03230   2.04012   2.06315   2.07541   2.09930
 Alpha virt. eigenvalues --    2.11400   2.12752   2.15899   2.16609   2.18484
 Alpha virt. eigenvalues --    2.20563   2.21191   2.22723   2.25087   2.29065
 Alpha virt. eigenvalues --    2.30081   2.31357   2.33733   2.34043   2.34232
 Alpha virt. eigenvalues --    2.36802   2.37909   2.38445   2.39296   2.40050
 Alpha virt. eigenvalues --    2.42121   2.46368   2.50063   2.52085   2.58240
 Alpha virt. eigenvalues --    2.63062   2.64562   2.68313   2.68426   2.68873
 Alpha virt. eigenvalues --    2.70575   2.72877   2.75912   2.78332   2.81052
 Alpha virt. eigenvalues --    2.81502   2.81960   2.87825   2.89435   2.91364
 Alpha virt. eigenvalues --    2.92419   2.95273   3.04890   3.08344   3.13227
 Alpha virt. eigenvalues --    3.15611   3.20224   3.24107   3.39999   3.46113
 Alpha virt. eigenvalues --    3.60552   3.66527   3.88208
          Condensed to atoms (all electrons):
               1          2          3          4          5          6
     1  C    5.102387   0.240243  -0.067003   0.081807  -0.134110   0.102761
     2  C    0.240243   5.254765   0.242419   0.367138   0.075621  -0.159486
     3  Cl  -0.067003   0.242419  16.963140  -0.041643   0.002280   0.000654
     4  C    0.081807   0.367138  -0.041643   4.941558   0.310990   0.086759
     5  C   -0.134110   0.075621   0.002280   0.310990   5.093318   0.294185
     6  C    0.102761  -0.159486   0.000654   0.086759   0.294185   5.030777
     7  C    0.293605   0.092883   0.001770  -0.116703   0.056641   0.317311
     8  N    0.366575  -0.072341  -0.001838   0.005833  -0.000002   0.008094
     9  N   -0.057194   0.003642  -0.002074  -0.000044  -0.000005  -0.000020
    10  C   -0.001122   0.000632   0.004482  -0.000010  -0.000003   0.000013
    11  C   -0.000260   0.000335   0.000510  -0.000005   0.000001  -0.000001
    12  Cl  -0.007179   0.000748  -0.000003  -0.000450   0.000134  -0.000923
    13  C   -0.000026   0.000018  -0.000068  -0.000000   0.000000  -0.000000
    14  C   -0.000006   0.000001   0.000003   0.000000  -0.000000   0.000000
    15  C    0.000005   0.000000  -0.000024  -0.000000   0.000000   0.000000
    16  C   -0.000264  -0.000060  -0.000507  -0.000001   0.000000   0.000000
    17  H    0.016837  -0.066854   0.000424   0.440930  -0.060006   0.012472
    18  H   -0.001913   0.014751  -0.000100  -0.065101   0.450343  -0.067387
    19  H    0.014387  -0.001140   0.000006   0.012317  -0.065322   0.441283
    20  H   -0.076150   0.016211  -0.000086  -0.002530   0.013925  -0.064007
    21  H    0.000010  -0.000002   0.000000   0.000000   0.000000   0.000000
    22  H    0.000000  -0.000000   0.000000  -0.000000   0.000000  -0.000000
    23  H   -0.000000  -0.000000   0.000000   0.000000  -0.000000   0.000000
    24  H    0.000009  -0.000006   0.000053   0.000000  -0.000000  -0.000000
               7          8          9         10         11         12
     1  C    0.293605   0.366575  -0.057194  -0.001122  -0.000260  -0.007179
     2  C    0.092883  -0.072341   0.003642   0.000632   0.000335   0.000748
     3  Cl   0.001770  -0.001838  -0.002074   0.004482   0.000510  -0.000003
     4  C   -0.116703   0.005833  -0.000044  -0.000010  -0.000005  -0.000450
     5  C    0.056641  -0.000002  -0.000005  -0.000003   0.000001   0.000134
     6  C    0.317311   0.008094  -0.000020   0.000013  -0.000001  -0.000923
     7  C    5.073627  -0.066649   0.003299   0.000550   0.000108   0.010183
     8  N   -0.066649   6.615852   0.304603  -0.084808  -0.007707  -0.001292
     9  N    0.003299   0.304603   6.541619   0.352418  -0.063634  -0.005614
    10  C    0.000550  -0.084808   0.352418   5.213646   0.180683  -0.060551
    11  C    0.000108  -0.007707  -0.063634   0.180683   5.302352   0.259868
    12  Cl   0.010183  -0.001292  -0.005614  -0.060551   0.259868  16.904979
    13  C    0.000015  -0.000945   0.003777   0.084653   0.336678  -0.056497
    14  C   -0.000000   0.000049  -0.000213  -0.137928   0.086459   0.002553
    15  C   -0.000000  -0.000411   0.007553   0.093152  -0.149052   0.000702
    16  C    0.000007   0.006883  -0.074302   0.359873   0.037871   0.001416
    17  H   -0.001706  -0.000073   0.000001  -0.000001  -0.000000  -0.000001
    18  H    0.013170   0.000004  -0.000000   0.000000  -0.000000   0.000000
    19  H   -0.060412  -0.000116  -0.000000  -0.000000   0.000000  -0.000014
    20  H    0.460647  -0.010372   0.000973  -0.000084  -0.000051   0.002074
    21  H   -0.000003   0.000040  -0.000081   0.016048  -0.062895   0.002412
    22  H    0.000000   0.000000   0.000005  -0.001768   0.013801  -0.000114
    23  H   -0.000000   0.000005  -0.000111   0.012796  -0.001361   0.000007
    24  H   -0.000000   0.000315   0.004462  -0.061872   0.021396  -0.000047
              13         14         15         16         17         18
     1  C   -0.000026  -0.000006   0.000005  -0.000264   0.016837  -0.001913
     2  C    0.000018   0.000001   0.000000  -0.000060  -0.066854   0.014751
     3  Cl  -0.000068   0.000003  -0.000024  -0.000507   0.000424  -0.000100
     4  C   -0.000000   0.000000  -0.000000  -0.000001   0.440930  -0.065101
     5  C    0.000000  -0.000000   0.000000   0.000000  -0.060006   0.450343
     6  C   -0.000000   0.000000   0.000000   0.000000   0.012472  -0.067387
     7  C    0.000015  -0.000000  -0.000000   0.000007  -0.001706   0.013170
     8  N   -0.000945   0.000049  -0.000411   0.006883  -0.000073   0.000004
     9  N    0.003777  -0.000213   0.007553  -0.074302   0.000001  -0.000000
    10  C    0.084653  -0.137928   0.093152   0.359873  -0.000001   0.000000
    11  C    0.336678   0.086459  -0.149052   0.037871  -0.000000  -0.000000
    12  Cl  -0.056497   0.002553   0.000702   0.001416  -0.000001   0.000000
    13  C    4.978850   0.311275   0.075352  -0.102207   0.000000  -0.000000
    14  C    0.311275   5.043532   0.277970   0.074626  -0.000000  -0.000000
    15  C    0.075352   0.277970   5.095897   0.280215   0.000000  -0.000000
    16  C   -0.102207   0.074626   0.280215   5.034240   0.000000  -0.000000
    17  H    0.000000  -0.000000   0.000000   0.000000   0.650794  -0.011530
    18  H   -0.000000  -0.000000  -0.000000  -0.000000  -0.011530   0.660798
    19  H   -0.000000  -0.000000   0.000000  -0.000000  -0.000233  -0.011041
    20  H    0.000003  -0.000000   0.000000   0.000003   0.000011  -0.000190
    21  H    0.439486  -0.057487   0.012358  -0.002048  -0.000000  -0.000000
    22  H   -0.059668   0.444952  -0.063370   0.012371  -0.000000   0.000000
    23  H    0.011889  -0.063721   0.449322  -0.062121   0.000000  -0.000000
    24  H   -0.003062   0.012464  -0.068790   0.435778  -0.000000   0.000000
              19         20         21         22         23         24
     1  C    0.014387  -0.076150   0.000010   0.000000  -0.000000   0.000009
     2  C   -0.001140   0.016211  -0.000002  -0.000000  -0.000000  -0.000006
     3  Cl   0.000006  -0.000086   0.000000   0.000000   0.000000   0.000053
     4  C    0.012317  -0.002530   0.000000  -0.000000   0.000000   0.000000
     5  C   -0.065322   0.013925   0.000000   0.000000  -0.000000  -0.000000
     6  C    0.441283  -0.064007   0.000000  -0.000000   0.000000  -0.000000
     7  C   -0.060412   0.460647  -0.000003   0.000000  -0.000000  -0.000000
     8  N   -0.000116  -0.010372   0.000040   0.000000   0.000005   0.000315
     9  N   -0.000000   0.000973  -0.000081   0.000005  -0.000111   0.004462
    10  C   -0.000000  -0.000084   0.016048  -0.001768   0.012796  -0.061872
    11  C    0.000000  -0.000051  -0.062895   0.013801  -0.001361   0.021396
    12  Cl  -0.000014   0.002074   0.002412  -0.000114   0.000007  -0.000047
    13  C   -0.000000   0.000003   0.439486  -0.059668   0.011889  -0.003062
    14  C   -0.000000  -0.000000  -0.057487   0.444952  -0.063721   0.012464
    15  C    0.000000   0.000000   0.012358  -0.063370   0.449322  -0.068790
    16  C   -0.000000   0.000003  -0.002048   0.012371  -0.062121   0.435778
    17  H   -0.000233   0.000011  -0.000000  -0.000000   0.000000  -0.000000
    18  H   -0.011041  -0.000190  -0.000000   0.000000  -0.000000   0.000000
    19  H    0.658391  -0.012229   0.000000  -0.000000   0.000000   0.000000
    20  H   -0.012229   0.662935  -0.000000   0.000000  -0.000000  -0.000001
    21  H    0.000000  -0.000000   0.633533  -0.011065  -0.000177   0.000028
    22  H   -0.000000   0.000000  -0.011065   0.635162  -0.010307  -0.000180
    23  H    0.000000  -0.000000  -0.000177  -0.010307   0.635897  -0.009728
    24  H    0.000000  -0.000001   0.000028  -0.000180  -0.009728   0.636275
 Mulliken charges:
               1
     1  C    0.126600
     2  C   -0.009517
     3  Cl  -0.102395
     4  C   -0.020844
     5  C   -0.037988
     6  C   -0.002482
     7  C   -0.078343
     8  N   -0.061698
     9  N   -0.019060
    10  C    0.029202
    11  C    0.044902
    12  Cl  -0.052392
    13  C   -0.019521
    14  C    0.005471
    15  C   -0.010879
    16  C   -0.001771
    17  H    0.018936
    18  H    0.018197
    19  H    0.024123
    20  H    0.008918
    21  H    0.029843
    22  H    0.040181
    23  H    0.037610
    24  H    0.032905
 Sum of Mulliken charges =  -0.00000
 Mulliken charges with hydrogens summed into heavy atoms:
               1
     1  C    0.126600
     2  C   -0.009517
     3  Cl  -0.102395
     4  C   -0.001908
     5  C   -0.019791
     6  C    0.021641
     7  C   -0.069424
     8  N   -0.061698
     9  N   -0.019060
    10  C    0.029202
    11  C    0.044902
    12  Cl  -0.052392
    13  C    0.010322
    14  C    0.045653
    15  C    0.026731
    16  C    0.031134
 APT charges:
               1
     1  C    0.836280
     2  C    0.043668
     3  Cl  -0.263793
     4  C    0.119968
     5  C   -0.306003
     6  C    0.158115
     7  C   -0.234775
     8  N   -0.670406
     9  N    0.165699
    10  C   -0.139362
    11  C    0.274222
    12  Cl  -0.206509
    13  C   -0.164734
    14  C    0.035519
    15  C   -0.082095
    16  C    0.020575
    17  H    0.057506
    18  H    0.034612
    19  H    0.030359
    20  H    0.054244
    21  H    0.061332
    22  H    0.046247
    23  H    0.044326
    24  H    0.085007
 Sum of APT charges =  -0.00000
 APT charges with hydrogens summed into heavy atoms:
               1
     1  C    0.836280
     2  C    0.043668
     3  Cl  -0.263793
     4  C    0.177474
     5  C   -0.271391
     6  C    0.188474
     7  C   -0.180531
     8  N   -0.670406
     9  N    0.165699
    10  C   -0.139362
    11  C    0.274222
    12  Cl  -0.206509
    13  C   -0.103403
    14  C    0.081766
    15  C   -0.037769
    16  C    0.105582
 Electronic spatial extent (au):  <R**2>=           5185.5608
 Charge=             -0.0000 electrons
 Dipole moment (field-independent basis, Debye):
    X=             -2.6211    Y=             -1.2123    Z=              1.2559  Tot=              3.1492
 Quadrupole moment (field-independent basis, Debye-Ang):
   XX=            -92.0127   YY=            -97.5739   ZZ=           -104.5201
   XY=             11.7810   XZ=              2.4324   YZ=              0.1022
 Traceless Quadrupole moment (field-independent basis, Debye-Ang):
   XX=              6.0229   YY=              0.4617   ZZ=             -6.4846
   XY=             11.7810   XZ=              2.4324   YZ=              0.1022
 Octapole moment (field-independent basis, Debye-Ang**2):
  XXX=            -78.5343  YYY=            361.5864  ZZZ=            -10.8201  XYY=            -64.3942
  XXY=             84.1460  XXZ=             -4.9684  XZZ=            -39.9004  YZZ=            119.1738
  YYZ=             10.6855  XYZ=              9.4189
 Hexadecapole moment (field-independent basis, Debye-Ang**3):
 XXXX=          -3609.9395 YYYY=          -2054.2268 ZZZZ=          -1006.3576 XXXY=           -446.0911
 XXXZ=            205.3960 YYYX=           -446.4610 YYYZ=            -71.4879 ZZZX=            162.9703
 ZZZY=            -43.3650 XXYY=           -845.6338 XXZZ=           -807.4277 YYZZ=           -483.2404
 XXYZ=             15.9579 YYXZ=             32.6810 ZZXY=           -150.3738
 N-N= 1.226569140005D+03 E-N=-5.963265642520D+03  KE= 1.483120772128D+03
  Exact polarizability:     237.817      59.072     140.868      16.430      15.994     131.021
 Approx polarizability:     235.399      44.690     166.102      30.341      18.701     166.095
 No NMR shielding tensors so no spin-rotation constants.
 Leave Link  601 at Fri Mar  6 17:33:55 2026, MaxMem=  2415919104 cpu:               1.1 elap:               0.5
 (Enter /prod/precompiled/gaussian/16c2/g16/l701.exe)
 ... and contract with generalized density number  0.
 Compute integral second derivatives.
 R6Disp: Adding Grimme-D2 dispersion energy 2nd derivatives to the Hessian.
   1 Symmetry operations used in ECPInt.
 ECPInt:  NShTT=    7750 NPrTT=   30142 LenC2=    7116 LenP2D=   19307.
 LDataN:  DoStor=T MaxTD1= 6 Len=  172
 Leave Link  701 at Fri Mar  6 17:33:55 2026, MaxMem=  2415919104 cpu:               1.1 elap:               0.4
 (Enter /prod/precompiled/gaussian/16c2/g16/l702.exe)
 L702 exits ... SP integral derivatives will be done elsewhere.
 Leave Link  702 at Fri Mar  6 17:33:55 2026, MaxMem=  2415919104 cpu:               0.1 elap:               0.1
 (Enter /prod/precompiled/gaussian/16c2/g16/l703.exe)
 Integral derivatives from FoFJK, PRISM(SPDF).
 Compute integral second derivatives, UseDBF=F ICtDFT=           0.
 Calling FoFJK, ICntrl=    100127 FMM=F ISym2X=0 I1Cent= 0 IOpClX= 0 NMat=1 NMatS=1 NMatT=0.
 FoFJK:  IHMeth= 1 ICntrl=  100127 DoSepK=T KAlg= 0 I1Cent=           0 FoldK=F
 IRaf=         1 NMat=       1 IRICut=       1 DoRegI=T DoRafI=F ISym2E= 0 IDoP0=0 IntGTp=1.
 FoFCou: FMM=F IPFlag=           0 FMFlag=      100000 FMFlg1=         800
         NFxFlg=           0 DoJE=F BraDBF=F KetDBF=F FulRan=T
         wScrn=  0.000000 ICntrl=    100527 IOpCl=  0 I1Cent=           0 NGrid=           0
         NMat0=    1 NMatS0=      1 NMatT0=    0 NMatD0=    1 NMtDS0=    0 NMtDT0=    0
 Symmetry not used in FoFCou.
 Leave Link  703 at Fri Mar  6 17:34:44 2026, MaxMem=  2415919104 cpu:             444.1 elap:              48.9
 (Enter /prod/precompiled/gaussian/16c2/g16/l716.exe)
 Dipole        =-1.03122985D+00-4.76953609D-01 4.94116777D-01
 Polarizability= 2.37816875D+02 5.90715709D+01 1.40868186D+02
                 1.64304644D+01 1.59938106D+01 1.31021257D+02
 Full mass-weighted force constant matrix:
 Low frequencies --- -389.8998   -1.7727   -0.0012    0.0017    0.0020    3.5450
 Low frequencies ---    8.1800   14.8632   28.1969
 ******    1 imaginary frequencies (negative Signs) ****** 
 Diagonal vibrational polarizability:
       78.0380494      31.6541276      26.7540673
 Harmonic frequencies (cm**-1), IR intensities (KM/Mole), Raman scattering
 activities (A**4/AMU), depolarization ratios for plane and unpolarized
 incident light, reduced masses (AMU), force constants (mDyne/A),
 and normal coordinates:
                           1         2         3         4         5
                           A         A         A         A         A
       Frequencies ---  -389.8998   14.7643   28.1949   74.6694  106.3934
    Reduced masses ---    13.3182   10.2203    7.7736    5.7494    6.7338
   Force constants ---     1.1929    0.0013    0.0036    0.0189    0.0449
    IR Intensities ---     8.7421    0.1980    2.0633    0.2355    0.0927
 Coord Atom Element:
   1     1     6         -0.05022   0.02417  -0.00172  -0.04658   0.00261
   2     1     6         -0.16702  -0.07039  -0.07362   0.01782  -0.10676
   3     1     6          0.20385   0.03293  -0.02862  -0.07630  -0.03745
   1     2     6         -0.04825   0.02065   0.07885  -0.04745   0.05278
   2     2     6         -0.08716  -0.00823   0.02011  -0.02912  -0.05152
   3     2     6          0.11448  -0.09139  -0.03649   0.01208  -0.03305
   1     3    17         -0.00619   0.01228   0.21826  -0.02897   0.18025
   2     3    17         -0.01107   0.10249   0.05043   0.01452  -0.11829
   3     3    17         -0.00203  -0.23590  -0.15116  -0.05606  -0.01301
   1     4     6         -0.01725   0.02543   0.05240  -0.07663   0.05026
   2     4     6         -0.01964  -0.03512   0.08520  -0.12826   0.05398
   3     4     6          0.02027  -0.09714   0.04353   0.18389  -0.05957
   1     5     6         -0.00424   0.03712  -0.05002  -0.10744  -0.00579
   2     5     6         -0.01489  -0.11919   0.07177  -0.16281   0.07846
   3     5     6         -0.00989   0.00409   0.11091   0.24528  -0.06803
   1     6     6         -0.01003   0.04235  -0.12913  -0.10220  -0.06232
   2     6     6         -0.02854  -0.17642  -0.00998  -0.07819  -0.00234
   3     6     6          0.03137   0.11465   0.10315   0.10352  -0.03062
   1     7     6         -0.00823   0.03540  -0.10674  -0.07247  -0.05158
   2     7     6         -0.08918  -0.15480  -0.08698   0.01746  -0.09378
   3     7     6          0.10514   0.13473   0.04350  -0.06430  -0.01894
   1     8     7          0.01203   0.01877   0.02027  -0.04436  -0.00131
   2     8     7          0.63831  -0.04106  -0.12249  -0.01752  -0.04156
   3     8     7         -0.62430   0.03589  -0.09541  -0.05363  -0.07431
   1     9     7         -0.07521   0.01688   0.02417  -0.05719  -0.08809
   2     9     7         -0.05925  -0.02345  -0.15375   0.06139   0.14379
   3     9     7          0.05639   0.03479  -0.08722  -0.05789   0.10827
   1    10     6          0.10712   0.02133  -0.02090  -0.03703  -0.09475
   2    10     6         -0.11136  -0.03594  -0.06387   0.06747   0.13182
   3    10     6          0.05455   0.02243  -0.00388  -0.02056   0.08519
   1    11     6          0.02058  -0.06058  -0.03355   0.08449  -0.01606
   2    11     6         -0.06341   0.07808   0.00106   0.04441  -0.00656
   3    11     6          0.05209   0.07151   0.02110  -0.04271   0.02493
   1    12    17          0.01748  -0.19506   0.05780   0.10214  -0.09889
   2    12    17          0.00378   0.25295  -0.05864   0.10087   0.05891
   3    12    17         -0.00629   0.11896  -0.04858  -0.09551   0.07944
   1    13     6         -0.01473  -0.03890  -0.11635   0.19152   0.10577
   2    13     6         -0.03100   0.06138   0.11604  -0.03155  -0.16425
   3    13     6          0.04481   0.07552   0.10450  -0.01369  -0.07648
   1    14     6         -0.00470   0.06813  -0.18766   0.16457   0.09511
   2    14     6         -0.00810  -0.07066   0.16377  -0.06842  -0.12050
   3    14     6          0.02008   0.02632   0.16453   0.04496  -0.09450
   1    15     6          0.01685   0.14998  -0.17109   0.02542  -0.05928
   2    15     6         -0.00149  -0.18308   0.09414  -0.02339   0.10529
   3    15     6          0.01353  -0.02571   0.13729   0.08175   0.00904
   1    16     6          0.05566   0.12096  -0.08555  -0.06910  -0.14417
   2    16     6         -0.03572  -0.15979  -0.02051   0.04054   0.22113
   3    16     6          0.03348  -0.02918   0.05344   0.04556   0.09540
   1    17     1         -0.01595   0.02118   0.11526  -0.07600   0.09343
   2    17     1          0.01367   0.01252   0.14994  -0.17757   0.10635
   3    17     1         -0.03680  -0.18950   0.04130   0.27281  -0.07522
   1    18     1          0.00662   0.04165  -0.06938  -0.13161  -0.00852
   2    18     1          0.02540  -0.13873   0.12577  -0.24674   0.15659
   3    18     1         -0.07474  -0.00580   0.16638   0.38923  -0.09477
   1    19     1          0.00001   0.05095  -0.21267  -0.12225  -0.11408
   2    19     1          0.00504  -0.24071  -0.01916  -0.09116   0.01076
   3    19     1         -0.01612   0.19216   0.15366   0.12927  -0.02332
   1    20     1          0.00147   0.03908  -0.16934  -0.07345  -0.09459
   2    20     1         -0.03973  -0.20161  -0.15732   0.06494  -0.14235
   3    20     1          0.03673   0.22557   0.04912  -0.15173  -0.01400
   1    21     1         -0.05483  -0.10713  -0.12394   0.29363   0.19218
   2    21     1         -0.02512   0.15257   0.16900  -0.05960  -0.30715
   3    21     1          0.05196   0.11509   0.12315  -0.03705  -0.13572
   1    22     1         -0.03326   0.08483  -0.25440   0.25079   0.19219
   2    22     1          0.01275  -0.08395   0.25631  -0.13113  -0.24720
   3    22     1          0.01366   0.02785   0.23183   0.06465  -0.17761
   1    23     1         -0.00024   0.23162  -0.22485  -0.00083  -0.09440
   2    23     1          0.03327  -0.28619   0.13177  -0.04898   0.16945
   3    23     1          0.01315  -0.06428   0.18239   0.13226   0.01274
   1    24     1          0.07562   0.17391  -0.07118  -0.16203  -0.22980
   2    24     1          0.01074  -0.24185  -0.07187   0.05401   0.35778
   3    24     1          0.05031  -0.06858   0.03107   0.06208   0.16075
                           6         7         8         9        10
                           A         A         A         A         A
       Frequencies ---   135.4005  176.2850  225.1282  239.5410  280.3670
    Reduced masses ---     5.3436    6.4490    9.0888    6.7491    6.3456
   Force constants ---     0.0577    0.1181    0.2714    0.2282    0.2939
    IR Intensities ---     0.5613    3.4134    1.1131    2.1113    5.4830
 Coord Atom Element:
   1     1     6         -0.02463  -0.03236   0.03204  -0.01791   0.00009
   2     1     6         -0.03891  -0.01393   0.08556  -0.18378  -0.07943
   3     1     6          0.07379  -0.08262  -0.22189   0.15278   0.02434
   1     2     6         -0.01140  -0.02077   0.04140  -0.01683  -0.01825
   2     2     6          0.03626  -0.00174   0.11848  -0.19116  -0.09520
   3     2     6         -0.03497  -0.07682  -0.24176   0.19624   0.02763
   1     3    17         -0.05409   0.05368  -0.11800  -0.09590  -0.03347
   2     3    17         -0.05850  -0.09311  -0.05248   0.03218  -0.05368
   3     3    17          0.11248  -0.00200   0.05313  -0.08389  -0.06106
   1     4     6          0.00809  -0.02959   0.00985  -0.02105  -0.02845
   2     4     6          0.13221   0.03374   0.10142  -0.06918   0.00347
   3     4     6         -0.17378  -0.04942  -0.11814   0.13873   0.02079
   1     5     6         -0.00293  -0.07488  -0.10484  -0.06674  -0.10134
   2     5     6          0.08272  -0.00198  -0.01898   0.14681   0.05351
   3     5     6         -0.10379   0.01634   0.10689  -0.10139   0.00420
   1     6     6         -0.04220  -0.10072  -0.14954  -0.10229  -0.11507
   2     6     6         -0.11266  -0.04666  -0.08744   0.12659   0.04953
   3     6     6          0.16570   0.04722   0.14494  -0.12740  -0.00805
   1     7     6         -0.05923  -0.07686  -0.10023  -0.12266  -0.08721
   2     7     6         -0.17572  -0.03631   0.01246  -0.11466  -0.00855
   3     7     6          0.26327  -0.03114  -0.07952   0.10200  -0.03117
   1     8     7         -0.01089  -0.04621   0.06423   0.04495   0.00694
   2     8     7         -0.04099   0.01508  -0.03868  -0.14119  -0.04505
   3     8     7          0.03283  -0.01863  -0.18699  -0.02038   0.09973
   1     9     7          0.01167  -0.12845   0.08897   0.08344  -0.05906
   2     9     7         -0.01264   0.23873  -0.09792  -0.10215   0.14905
   3     9     7         -0.05937   0.14503  -0.18708  -0.13187   0.25548
   1    10     6         -0.01094  -0.06053   0.13711  -0.00826   0.16198
   2    10     6          0.00611   0.13260  -0.00530   0.10686  -0.15930
   3    10     6         -0.06818   0.06860  -0.02013   0.01169  -0.01398
   1    11     6          0.04004  -0.08639   0.13178   0.02020   0.18013
   2    11     6          0.03080   0.14939   0.00708   0.12949  -0.19021
   3    11     6         -0.06821   0.07499   0.00678   0.02476  -0.03809
   1    12    17          0.06479   0.11705  -0.02479   0.07040   0.02606
   2    12    17          0.07931  -0.09611  -0.06119  -0.02152   0.09289
   3    12    17         -0.12701   0.00564   0.26574   0.09253  -0.00839
   1    13     6          0.07354  -0.14595   0.09032   0.03445   0.07126
   2    13     6          0.02971   0.20073   0.01289   0.09784  -0.10073
   3    13     6         -0.02223   0.07568  -0.05190  -0.02842  -0.04764
   1    14     6          0.04604   0.01511   0.03935   0.10566  -0.11328
   2    14     6          0.01750   0.04172   0.08782   0.03037   0.17756
   3    14     6          0.02086  -0.02360  -0.03383  -0.07863  -0.00705
   1    15     6         -0.01227   0.20693   0.02572   0.08530  -0.01439
   2    15     6          0.00460  -0.14901   0.12027   0.03204   0.13053
   3    15     6          0.02413  -0.11922  -0.01414  -0.07103  -0.04058
   1    16     6         -0.03369   0.11066   0.10655   0.02610   0.19524
   2    16     6         -0.00173  -0.03383   0.04418   0.09885  -0.08321
   3    16     6         -0.02828  -0.04562  -0.00487  -0.01673  -0.08593
   1    17     1          0.02867  -0.00151   0.06452   0.03577   0.03684
   2    17     1          0.22669   0.06181   0.14069  -0.03359   0.05891
   3    17     1         -0.30495  -0.04879  -0.09040   0.17701   0.03920
   1    18     1          0.01343  -0.08408  -0.13819  -0.05121  -0.10466
   2    18     1          0.16145  -0.00008  -0.07577   0.32663   0.10841
   3    18     1         -0.21221   0.05450   0.27636  -0.25621  -0.00795
   1    19     1         -0.05972  -0.13514  -0.21499  -0.11059  -0.13155
   2    19     1         -0.21031  -0.08667  -0.22546   0.27602   0.08853
   3    19     1          0.29770   0.11351   0.35015  -0.31315  -0.05071
   1    20     1         -0.08866  -0.10851  -0.16429  -0.18001  -0.14473
   2    20     1         -0.31427  -0.07210  -0.07712  -0.15616  -0.01944
   3    20     1          0.45510  -0.02787  -0.04390   0.06380  -0.12371
   1    21     1          0.11582  -0.24242   0.06657   0.02145  -0.00880
   2    21     1          0.04251   0.27690  -0.01435   0.06833  -0.11391
   3    21     1         -0.02389   0.11415  -0.05778  -0.03655  -0.04077
   1    22     1          0.06739   0.01964   0.00263   0.17186  -0.34090
   2    22     1          0.01667   0.02611   0.12663  -0.04298   0.40470
   3    22     1          0.05330  -0.04605  -0.02028  -0.11123   0.05636
   1    23     1         -0.03768   0.38966  -0.02498   0.14030  -0.13297
   2    23     1         -0.00732  -0.34330   0.20135  -0.03130   0.29964
   3    23     1          0.06470  -0.22918  -0.00036  -0.10013   0.00308
   1    24     1         -0.06939   0.18191   0.14472   0.07399   0.25189
   2    24     1         -0.02214  -0.09488   0.06935   0.10287  -0.03612
   3    24     1         -0.03226  -0.07894   0.00143  -0.02028  -0.07294
                          11        12        13        14        15
                           A         A         A         A         A
       Frequencies ---   289.1723  338.8654  399.9495  429.2836  463.5071
    Reduced masses ---     9.0552    6.7616   11.1815    3.3759    4.0069
   Force constants ---     0.4461    0.4575    1.0538    0.3665    0.5072
    IR Intensities ---     4.0994   14.7075    1.8027    3.5842    1.6282
 Coord Atom Element:
   1     1     6         -0.15845   0.03818  -0.14751  -0.02379  -0.01687
   2     1     6          0.11242  -0.06848  -0.01460  -0.09852   0.01277
   3     1     6          0.10004  -0.02074  -0.07151   0.11663  -0.01139
   1     2     6         -0.24703   0.08982  -0.02810  -0.02112  -0.03008
   2     2     6          0.00904  -0.05359   0.10224  -0.12593   0.02228
   3     2     6          0.03802   0.08476   0.06652   0.18535  -0.01344
   1     3    17          0.18771  -0.02907   0.11569   0.00384   0.03530
   2     3    17         -0.11330   0.07323   0.24981   0.02481   0.04874
   3     3    17         -0.06284   0.03257   0.18734   0.00187   0.03914
   1     4     6         -0.23822   0.10628  -0.00856   0.03530  -0.04359
   2     4     6         -0.04981  -0.02361  -0.15191   0.11985  -0.06893
   3     4     6         -0.02008   0.04470  -0.02244  -0.17638  -0.01758
   1     5     6         -0.06294   0.07230   0.06715  -0.00575  -0.05997
   2     5     6         -0.07800   0.04479  -0.14640  -0.04484  -0.05043
   3     5     6         -0.10282  -0.02341  -0.13984   0.04876  -0.05831
   1     6     6          0.04930   0.01368   0.00299  -0.01971  -0.05111
   2     6     6         -0.00811  -0.01672  -0.20060  -0.08221  -0.04025
   3     6     6         -0.02497  -0.02161  -0.17386   0.09476  -0.05572
   1     7     6          0.01156   0.01121  -0.06648   0.02654  -0.06283
   2     7     6          0.05245  -0.07750  -0.12918   0.11348  -0.01038
   3     7     6          0.11338  -0.00645  -0.01963  -0.18025   0.01222
   1     8     7         -0.18401   0.02770  -0.12357  -0.01218   0.01364
   2     8     7          0.20947  -0.05297  -0.18532  -0.02308  -0.03065
   3     8     7          0.22070  -0.10867  -0.15612   0.02605   0.00747
   1     9     7         -0.02196  -0.08072  -0.20619  -0.01161   0.00968
   2     9     7         -0.02187   0.30193  -0.00867  -0.02925  -0.01554
   3     9     7         -0.19077  -0.00664  -0.00037   0.00885   0.05213
   1    10     6          0.02871  -0.01858  -0.07976  -0.00331   0.14153
   2    10     6          0.00760   0.06504  -0.05326  -0.03929  -0.11606
   3    10     6         -0.13719  -0.19370   0.03790  -0.04713  -0.05108
   1    11     6          0.12165   0.06187   0.07516   0.02103   0.13890
   2    11     6          0.05979   0.03991  -0.02535   0.02409  -0.14882
   3    11     6         -0.11001  -0.21032   0.04953  -0.02567  -0.07267
   1    12    17         -0.00166  -0.12755   0.15232   0.02557  -0.07541
   2    12    17         -0.04391  -0.11657   0.09169   0.00780  -0.02575
   3    12    17          0.13163   0.03806   0.12425   0.02920  -0.03929
   1    13     6          0.14339   0.15006   0.00323  -0.00821  -0.07199
   2    13     6          0.07350   0.07473  -0.05467   0.06151   0.15244
   3    13     6         -0.07558  -0.03813  -0.09421  -0.01682   0.10522
   1    14     6          0.04911   0.02148  -0.09722   0.03429   0.11684
   2    14     6          0.10186   0.06066   0.07201  -0.00978  -0.00874
   3    14     6          0.04266   0.19690  -0.10713  -0.02570  -0.00013
   1    15     6         -0.01859  -0.00828  -0.09324  -0.02864   0.13715
   2    15     6          0.02465  -0.07665  -0.02193  -0.01806   0.00125
   3    15     6          0.02868   0.15162  -0.13582  -0.02037  -0.00188
   1    16     6          0.01507  -0.03791   0.00003  -0.06553  -0.06023
   2    16     6         -0.06258  -0.13328  -0.08208   0.01357   0.18579
   3    16     6         -0.08025  -0.06902  -0.06471  -0.01790   0.06568
   1    17     1         -0.33288   0.11919  -0.18172   0.08248  -0.07800
   2    17     1         -0.11497  -0.01427  -0.30847   0.35012  -0.11766
   3    17     1         -0.07199   0.05077  -0.04834  -0.50082   0.01075
   1    18     1         -0.02647   0.07038   0.06097  -0.00466  -0.06401
   2    18     1         -0.16427   0.13736  -0.09458  -0.02580  -0.03699
   3    18     1         -0.21974  -0.05826  -0.14520   0.03594  -0.05177
   1    19     1          0.16191  -0.02970   0.02043  -0.02847  -0.00655
   2    19     1         -0.01939   0.01802  -0.19728  -0.11533  -0.04728
   3    19     1         -0.06307  -0.04566  -0.18678   0.14062  -0.06857
   1    20     1          0.09176   0.00217   0.04367   0.07326  -0.06279
   2    20     1          0.09342  -0.08248  -0.10500   0.32685  -0.03117
   3    20     1          0.19582  -0.01516   0.14686  -0.47325   0.04716
   1    21     1          0.20264   0.31320  -0.08206  -0.04235  -0.29801
   2    21     1          0.09912   0.20479  -0.16940   0.09982   0.44944
   3    21     1         -0.07606  -0.01951  -0.11889   0.00034   0.23359
   1    22     1          0.03802  -0.00216  -0.16162   0.07906   0.08980
   2    22     1          0.16762   0.16857   0.15871  -0.03726  -0.00194
   3    22     1          0.14695   0.35863  -0.04484  -0.00603  -0.03268
   1    23     1         -0.08086  -0.06294  -0.10409  -0.04026   0.13434
   2    23     1          0.02742  -0.12788   0.00388  -0.03599  -0.01146
   3    23     1          0.10793   0.25434  -0.13893   0.00593   0.01181
   1    24     1          0.00118  -0.19378   0.12012  -0.10747  -0.28724
   2    24     1         -0.13185  -0.29854  -0.03847   0.05856   0.46369
   3    24     1         -0.10639  -0.11876  -0.06143   0.00494   0.20627
                          16        17        18        19        20
                           A         A         A         A         A
       Frequencies ---   466.2132  516.9173  532.8248  562.5808  578.9212
    Reduced masses ---     5.9323    4.7384    4.2820    7.0850    7.7386
   Force constants ---     0.7597    0.7460    0.7163    1.3212    1.5281
    IR Intensities ---     0.2121    4.9914    8.4364    9.5038    1.1650
 Coord Atom Element:
   1     1     6         -0.02676   0.03365   0.04538   0.09696   0.10175
   2     1     6          0.00586   0.20069   0.04326   0.04281  -0.08260
   3     1     6          0.03119  -0.19303  -0.05074   0.20566  -0.06612
   1     2     6         -0.06994  -0.05730   0.00503  -0.05492   0.13687
   2     2     6         -0.03656  -0.13991  -0.02685   0.03675  -0.08813
   3     2     6          0.08495   0.22378   0.00580  -0.04978  -0.04517
   1     3    17          0.05265   0.00134   0.01620   0.03060   0.01424
   2     3    17          0.06868  -0.01267   0.02442  -0.01091   0.06876
   3     3    17          0.04773  -0.03876   0.01472   0.00576   0.04958
   1     4     6         -0.06607  -0.04668  -0.00648  -0.10399   0.16732
   2     4     6         -0.04191  -0.05456  -0.07985  -0.06124  -0.11197
   3     4     6         -0.10984   0.08149   0.00440  -0.14584  -0.04308
   1     5     6         -0.09471   0.02398  -0.06631  -0.20787  -0.10195
   2     5     6         -0.08831   0.13763   0.00162  -0.15548  -0.02383
   3     5     6         -0.07374  -0.18824  -0.08334   0.00246  -0.04945
[...]
 39,-0.00000276,-0.00000173,-0.00021761,-0.00003134,0.00032544,0.000734
 12,0.00045276,0.00016050,0.00707760,0.00162029,0.00238788,-0.03652672,
 -0.02807897,-0.00173471,-0.21463433,-0.08522939,-0.08975851,0.01611189
 ,0.03685900,-0.05894349,0.00094126,-0.00370372,0.00063140,-0.04844986,
 -0.03515445,-0.00457717,0.03924392,-0.00220598,0.06070278,-0.19583906,
 -0.11890928,0.00922495,0.49415809,0.00070731,-0.00003239,0.00137412,-0
 .00051874,-0.00046631,-0.00012137,0.00010647,0.00028908,0.00018156,0.0
 0019244,0.00024178,-0.00013825,-0.00024882,-0.00002801,-0.00006923,0.0
 0012105,-0.00010007,0.00024904,-0.00005576,0.00012183,-0.00037090,-0.0
 0375192,-0.00046432,0.00110958,-0.03306296,-0.01703396,-0.00968132,-0.
 06128853,-0.12270170,-0.00984583,0.01715216,0.04012774,-0.03667234,-0.
 00196181,0.00070283,0.00439284,-0.03623115,-0.03309614,-0.00464861,0.0
 1630265,-0.00711188,0.06210948,-0.14494258,-0.22357612,0.05295749,0.24
 928176,0.45177148,-0.00358471,-0.00009242,-0.00190890,0.00122659,0.000
 12697,0.00007043,-0.00017369,-0.00014807,-0.00020640,-0.00039387,-0.00
 024527,0.00002037,0.00047681,0.00011607,0.00016019,-0.00023748,0.00001
 672,-0.00013356,0.00064609,0.00035313,0.00075438,0.01093333,0.00550329
 ,0.00120028,0.00789265,-0.00015677,0.01354431,-0.13435648,-0.04861993,
 -0.19117145,-0.02054980,0.00080545,-0.03004523,-0.00178625,0.00206765,
 -0.00292975,-0.00559665,-0.00517726,-0.00469292,0.02082395,0.02792662,
 -0.00967464,0.06232271,0.09691971,-0.15447095,0.11151400,-0.17157280,0
 .67614915,-0.00425479,-0.00110242,-0.00198492,-0.01393251,0.02017862,0
 .01133786,0.00105669,0.00010018,0.00056052,-0.18581023,0.12700746,0.06
 849788,0.01051063,-0.00723264,-0.00438927,0.00061340,-0.00157293,-0.00
 218526,-0.00024812,-0.00085025,-0.00044204,-0.00101211,0.00076808,0.00
 066917,0.00036069,0.00003887,-0.00042931,-0.00013752,0.00001597,0.0002
 1582,-0.00008993,0.00001375,-0.00007849,0.00003135,0.00001141,0.000027
 08,-0.00000640,-0.00002875,-0.00000609,-0.00001661,-0.00001780,0.00000
 450,-0.00001089,-0.00001580,0.00003215,0.00006466,-0.00002987,0.000041
 58,0.19208185,-0.00123117,0.00265330,-0.00238467,-0.00474163,0.0041989
 3,-0.00049598,-0.00078878,-0.00031736,0.00184792,0.12885521,-0.1745156
 4,-0.07818418,0.01688477,-0.00746507,-0.00609893,-0.00173421,-0.000491
 02,-0.00551398,-0.00090624,-0.00019919,0.00049043,-0.00003776,0.000204
 82,-0.00003442,0.00007472,-0.00011780,-0.00000797,-0.00001742,0.000100
 12,0.00001280,0.00001123,-0.00001196,0.00002846,0.00000044,0.00000177,
 -0.00001659,0.00000113,0.00000494,-0.00000095,-0.00000207,0.00000082,-
 0.00000494,0.00000134,-0.00000468,0.00000438,0.00000759,0.00000121,-0.
 00002163,-0.13676198,0.17752153,-0.00253540,-0.00266878,0.00346691,-0.
 00630750,0.00349152,0.00526992,0.00006870,0.00186334,-0.00178551,0.070
 04132,-0.07804242,-0.08351258,0.01290441,-0.01039980,-0.00086233,-0.00
 242353,-0.00529933,0.00267272,-0.00037909,0.00044263,-0.00071751,0.000
 03655,0.00032211,0.00072841,-0.00004154,-0.00009282,-0.00021188,-0.000
 00825,0.00007948,0.00004909,-0.00000803,0.00001166,-0.00000335,-0.0000
 2460,-0.00000200,0.00003070,0.00001172,-0.00001750,-0.00000242,-0.0000
 0112,-0.00000078,0.00000211,-0.00000224,-0.00000001,0.00000239,-0.0000
 0011,-0.00000872,-0.00000178,-0.07245768,0.08801828,0.07787789,0.00051
 062,0.00024726,0.00035961,0.00160196,-0.00052313,-0.00111834,-0.000216
 19,-0.00008316,-0.00018422,-0.00375588,0.00210859,0.00073715,-0.331260
 66,-0.02977118,-0.06699808,-0.01381884,-0.00580963,-0.00661535,-0.0005
 0096,0.00350625,0.00163476,0.00001695,-0.00014581,-0.00002252,0.000163
 39,0.00005678,-0.00002449,-0.00002480,-0.00000481,0.00005791,-0.000013
 34,0.00001066,-0.00001490,-0.00000234,-0.00000177,-0.00000512,-0.00001
 567,-0.00001377,-0.00001353,-0.00000415,-0.00000592,0.00000717,-0.0000
 0087,-0.00000185,0.00001165,0.00002103,-0.00000612,0.00002114,0.000452
 60,-0.00039540,0.00043610,0.34694242,0.00007174,-0.00093301,-0.0001006
 6,-0.00004593,-0.00054152,-0.00483547,-0.00086347,-0.00040314,-0.00080
 830,-0.02350237,0.00104029,-0.00420442,-0.02957487,-0.05246995,-0.0200
 1460,0.01958161,0.00594197,0.00597136,0.00289315,-0.00033135,-0.004144
 46,-0.00008021,-0.00000497,0.00022237,0.00007256,-0.00006147,-0.000021
 47,-0.00000885,0.00000222,0.00002267,-0.00004074,-0.00001713,-0.000046
 55,0.00002182,0.00000439,0.00003599,0.00001330,0.00001115,0.00001165,-
 0.00000185,0.00000114,-0.00000644,0.00000079,-0.00000021,0.00000791,0.
 00000446,0.00000556,0.00000649,-0.00011405,-0.00083262,0.00250281,0.03
 134394,0.04912712,0.00032799,-0.00035136,-0.00084766,-0.00015357,-0.00
 477736,0.00265201,-0.00079674,-0.00061265,0.00003724,-0.01821367,-0.00
 071017,-0.00137047,-0.06695511,-0.01976476,-0.05601882,0.01212728,0.00
 200066,0.00507510,0.00066528,-0.00401571,0.00310897,0.00003711,0.00045
 582,-0.00006360,-0.00005745,0.00004515,0.00003227,0.00004725,-0.000017
 83,-0.00006164,0.00002294,0.00000930,0.00000861,-0.00001682,-0.0000000
 9,-0.00000579,-0.00000663,0.00000032,-0.00000336,0.00000225,0.00000153
 ,0.00000213,0.00000042,0.00000567,-0.00000071,-0.00000377,0.,-0.000000
 93,0.00073875,0.00243608,-0.00242301,0.07162759,0.02319770,0.05166732,
 -0.00526883,-0.00013471,-0.00221595,-0.00112727,0.00044976,0.00020101,
 0.00015209,-0.00008282,0.00005019,-0.00235956,0.00348523,0.00117810,0.
 01067778,0.01619225,0.01287021,-0.08089585,-0.05835441,-0.04900054,-0.
 00328277,-0.02249627,-0.01739581,0.00011669,-0.00095615,-0.00093426,0.
 00009123,0.00013445,0.00002015,-0.00007124,0.00005060,0.00016984,-0.00
 014438,-0.00001355,-0.00015821,0.00005075,0.00002820,0.00007725,-0.000
 00438,-0.00002049,0.00000116,-0.00001576,-0.00001838,0.00001438,0.0000
 1103,-0.00000719,0.00003466,0.00004713,-0.00001971,0.00004499,0.000358
 13,0.00075981,0.00058321,0.00062896,-0.00071347,0.00016751,0.08033233,
 0.00086916,0.00358865,-0.00240875,0.00034563,0.00016630,0.00079669,-0.
 00011333,-0.00020222,0.00026776,0.00382414,0.00068793,-0.00381252,-0.0
 0873330,-0.00849526,-0.01077637,-0.05882484,-0.21578871,-0.13847657,0.
 00213389,0.00144363,-0.00165985,-0.00028030,0.00000009,-0.00034894,-0.
 00002525,0.00009644,0.00003050,0.00001284,-0.00013401,0.00000422,-0.00
 010385,-0.00001752,-0.00011176,0.00005146,0.00000899,0.00002059,-0.000
 00851,0.00000677,0.00001401,-0.00000813,-0.00001088,0.00000768,-0.0000
 0443,0.00000368,0.00001486,0.00001450,-0.00002411,0.00004912,-0.000382
 11,-0.00053812,-0.00045073,-0.00032612,-0.00087193,0.00231323,0.061984
 91,0.22125812,-0.00115585,-0.00238706,0.00503059,0.00043453,0.00082193
 ,-0.00014841,-0.00001795,0.00019990,-0.00044466,0.00137739,-0.00378488
 ,0.00418085,-0.00532242,-0.00701948,-0.00153129,-0.04917811,-0.1383215
 4,-0.14820152,0.00005384,-0.00575595,0.00004292,-0.00066829,-0.0003891
 4,0.00005008,0.00025278,0.00016421,-0.00015684,-0.00007179,-0.00005460
 ,0.00011803,-0.00000716,0.00001511,-0.00002691,-0.00001438,0.00001085,
 0.00000960,-0.00000077,-0.00001897,-0.00000963,-0.00000225,-0.00000213
 ,-0.00000188,-0.00000405,-0.00001055,0.00001206,0.00003429,0.00000357,
 0.00002079,-0.00023160,-0.00030887,-0.00025511,0.00046390,0.00226455,-
 0.00238437,0.05353365,0.15207619,0.14639182,0.00744455,-0.00941185,-0.
 00607208,-0.00005088,-0.00070235,-0.00125277,0.00025788,-0.00067059,-0
 .00034276,-0.00013120,-0.00088762,-0.00056427,-0.00404877,-0.00145640,
 -0.00276029,-0.01290696,0.01985162,0.01221782,-0.19279314,0.13146202,0
 .06934103,0.00206505,-0.00019487,0.00023991,-0.00047631,-0.00015277,0.
 00018458,0.00002727,-0.00003665,-0.00008825,0.00006252,-0.00005477,0.0
 0008721,-0.00007456,-0.00001488,-0.00005788,-0.00002012,0.00001195,0.0
 0000148,0.00001033,0.00000769,0.00000973,0.00000536,0.00001203,-0.0000
 3066,-0.00005508,0.00000899,-0.00001783,-0.00000421,0.00002381,0.00010
 511,-0.00072642,0.00093779,0.00043271,0.00070125,-0.00043099,0.0005234
 6,0.20071034,0.01479454,-0.00995539,-0.00693125,-0.00163470,0.00023964
 ,-0.00401286,0.00040380,-0.00096540,-0.00041149,-0.00110267,-0.0004359
 8,0.00015883,-0.00068877,0.00331196,-0.00257521,-0.00464332,0.00564112
 ,0.00139504,0.13024285,-0.16885791,-0.07866429,0.00220423,-0.00007928,
 0.00110008,-0.00071185,-0.00066282,0.00003846,-0.00001917,0.00005435,0
 .00007115,-0.00049913,-0.00011796,-0.00053545,0.00023796,0.00003171,0.
 00039660,0.00016689,0.00010352,0.00016410,-0.00001225,0.00000077,-0.00
 003926,0.00002498,0.00000689,0.00003943,-0.00001699,-0.00002370,0.0000
 4907,-0.00003104,-0.00019719,0.00025232,-0.00018227,0.00033742,-0.0002
 0980,-0.00026117,-0.00116975,0.00249578,-0.13830010,0.17275452,0.01339
 890,-0.01099001,-0.00225044,-0.00175321,-0.00390461,0.00192888,0.00034
 580,-0.00056491,-0.00068239,-0.00087680,-0.00004984,-0.00099099,-0.002
 42333,-0.00247550,0.00439772,-0.00564593,0.00577268,0.00581161,0.06753
 014,-0.07958189,-0.07925253,0.00168262,0.00139044,0.00004319,-0.001167
 07,0.00068565,-0.00027279,0.00038016,-0.00023602,-0.00044028,0.0003102
 0,0.00001841,0.00026724,-0.00009723,0.00013886,-0.00035886,-0.00011293
 ,-0.00002290,-0.00007425,0.00002608,-0.00000249,0.00004387,-0.00000547
 ,0.00004306,-0.00005460,-0.00008995,-0.00001443,-0.00003432,0.00006663
 ,0.00023376,-0.00032594,-0.00036217,-0.00006302,0.00059857,0.00074925,
 0.00244659,-0.00269818,-0.07194811,0.08718670,0.07436672,0.00030075,0.
 00002814,0.00009053,-0.00010726,0.00000777,0.00001764,0.00000955,0.000
 03115,0.00001353,0.00002652,0.00000476,-0.00000338,-0.00006046,0.00001
 032,-0.00001142,0.00005114,-0.00000393,0.00000165,-0.00009349,-0.00007
 644,-0.00006045,-0.00009153,0.00014332,-0.00042880,0.00037618,-0.00028
 695,0.00115741,-0.00011452,-0.00491414,-0.00056190,0.00455922,-0.00747
 714,0.01809468,-0.00066809,0.00144647,0.00141087,-0.05308124,0.0041021
 1,-0.03937249,0.00220992,0.00778733,-0.02108059,-0.00040920,-0.0048967
 8,-0.00331312,-0.00088750,-0.00008467,0.00025656,-0.00000487,-0.000001
 31,0.00000383,0.00000016,-0.00000219,0.00000309,-0.00000197,-0.0000049
 4,0.00000142,0.00000104,-0.00002241,0.00000825,0.04940088,0.00034764,0
 .00001880,0.00011818,-0.00012533,0.00006295,0.00003589,-0.00001034,-0.
 00001827,-0.00001360,0.00004236,0.00001744,0.00003581,-0.00003356,-0.0
 0002680,-0.00002400,0.00000417,0.00000355,-0.00002728,-0.00006022,-0.0
 0002275,-0.00007162,-0.00020109,0.00035582,-0.00034502,0.00078792,-0.0
 0023543,0.00099467,-0.00545853,0.00038014,0.00232634,0.00318666,-0.002
 59118,0.01974031,0.00190402,-0.00105870,-0.00034636,0.00278932,-0.0765
 8049,0.09086119,-0.00181447,0.00801788,-0.01198471,-0.00465192,0.00292
 024,-0.00020481,-0.00050038,-0.00107271,-0.00056282,-0.00000237,0.0000
 0104,-0.00000204,-0.00000043,-0.00000143,-0.00000025,-0.00000871,-0.00
 000652,0.00000021,0.00000131,-0.00002389,0.00001111,0.00134592,0.07166
 538,-0.00044183,-0.00006715,-0.00016637,0.00014102,-0.00000508,0.00001
 615,-0.00001505,-0.00003711,-0.00001948,-0.00003740,-0.00001704,-0.000
 01940,0.00005368,0.00000727,0.00001419,-0.00003921,-0.00000489,0.00000
 428,0.00007714,0.00005017,0.00008153,0.00070714,0.00002039,0.00034929,
 -0.00093828,-0.00018419,-0.00029229,0.00095741,0.00270349,0.00104432,-
 0.00448119,0.00084434,-0.00653425,0.00006187,-0.00155664,0.00067236,-0
 .03801317,0.09207879,-0.31525217,0.00093224,0.00693195,-0.00915109,-0.
 00357908,-0.00028443,0.00058529,0.00005304,-0.00076970,0.00074145,0.00
 000676,-0.00000006,-0.00000154,0.00000107,0.00000132,-0.00000166,0.000
 00356,0.00000267,0.00000215,-0.00000145,0.00001390,-0.00000997,0.04333
 839,-0.09887828,0.32843302,0.00007748,-0.00001681,-0.00005385,0.000006
 24,-0.00004645,0.00000458,0.00000271,0.00002726,0.00001763,-0.00001056
 ,-0.00000919,-0.00000827,-0.00002140,0.00002455,0.00001430,0.00004967,
 -0.00000726,0.00001232,-0.00006393,-0.00002329,0.00000166,-0.00013927,
 -0.00001363,-0.00001844,-0.00038461,0.00029486,0.00022726,-0.00017320,
 0.00058561,-0.00048241,0.00084119,-0.00395736,-0.00386662,-0.00073085,
 -0.00056935,0.00000081,-0.00751076,-0.01553966,0.01039021,-0.15632512,
 -0.13094517,0.06127968,0.00695461,0.00361830,-0.00390333,0.00334580,-0
 .00198059,-0.00248238,-0.00000198,0.00000143,-0.00000060,-0.00000227,0
 .00000116,0.00000035,0.00000032,0.00000029,-0.00000242,0.00000184,0.00
 002130,-0.00000691,-0.00119352,0.00234113,0.00105968,0.15643189,0.0001
 3159,0.00011048,0.00009519,-0.00004746,0.00001772,-0.00002396,-0.00000
 540,-0.00000356,-0.00000011,0.00001551,0.00001144,0.00001555,-0.000012
 32,-0.00000667,-0.00000782,0.00001681,0.00000720,0.00000052,-0.0000006
 0,-0.00003572,-0.00000866,-0.00005684,-0.00004966,0.00000258,0.0005183
 8,-0.00038982,-0.00027585,0.00043105,0.00015150,-0.00055301,-0.0036598
 4,0.00389911,0.00019079,-0.00028198,-0.00033125,-0.00010933,-0.0052872
 0,-0.00296747,0.00638807,-0.13093509,-0.19442265,0.08113957,-0.0069394
 5,-0.00163033,0.00096332,-0.00194697,0.00367396,0.00345976,-0.00000195
 ,-0.00000047,0.00000156,-0.00000242,-0.00000030,-0.00000065,-0.0000012
 3,-0.00000271,-0.00000071,-0.00000049,0.00000471,-0.00000208,0.0022384
 0,-0.00184188,-0.00110132,0.14397830,0.19586421,-0.00011448,0.00002121
 ,-0.00002321,0.00004065,0.00000217,-0.00001845,-0.00000051,-0.00000821
 ,-0.00000330,-0.00001533,-0.00000491,-0.00000196,0.00001766,0.00000439
 ,0.00000519,-0.00000527,0.00000459,-0.00000156,0.00002726,-0.00000127,
 0.00003303,0.00019262,-0.00001824,0.00008640,0.00030476,-0.00010881,-0
 .00005926,-0.00091319,-0.00043336,-0.00101744,-0.00376963,0.00015405,-
 0.00031198,-0.00064749,-0.00058049,-0.00010943,-0.01216430,-0.01324730
 ,0.01019162,0.06141820,0.08141618,-0.09864288,0.01836906,0.02013317,-0
 .00367678,-0.00252850,0.00322621,-0.00427783,0.00000104,-0.00000114,0.
 00000120,0.00000025,0.00000028,0.00000010,0.00000193,0.00000113,0.0000
 0083,-0.00000200,0.00000637,-0.00000412,0.00123551,-0.00096992,0.00009
 173,-0.06317277,-0.08904683,0.09754561,0.00044297,0.00007215,0.0002205
 5,-0.00013558,-0.00004068,-0.00004734,0.00000894,0.00004553,0.00003276
 ,0.00002861,0.00003450,0.00002026,-0.00005292,0.00000266,-0.00000380,0
 .00005969,-0.00000757,0.00000710,-0.00009647,-0.00004818,-0.00007343,-
 0.00074459,-0.00022199,-0.00008010,-0.00006058,0.00013556,-0.00076412,
 0.00234908,-0.00520605,0.00098676,0.00003850,0.00024173,0.00053977,-0.
 00027950,0.00036529,0.00010457,0.00361433,-0.00211253,-0.00165325,0.00
 157147,-0.00242650,0.00089382,-0.20839407,-0.08775737,-0.12597974,-0.0
 0833801,-0.00471575,-0.01199527,-0.00000937,0.00000059,-0.00000170,-0.
 00000290,0.00000116,0.00000028,-0.00000514,-0.00000346,-0.00000326,0.0
 0000447,0.00000426,0.00000272,-0.00004498,-0.00013399,0.00003160,-0.00
 127687,0.00205838,0.00089036,0.21246527,0.00039400,0.00001692,0.000160
 32,-0.00012815,-0.00000373,0.00003036,0.00000820,0.00001989,0.00001918
 ,0.00005671,0.00001958,-0.00000237,-0.00005707,-0.00001965,-0.00002332
 ,0.00002323,0.00000584,0.00002332,-0.00004985,-0.00004462,-0.00009383,
 -0.00075197,-0.00038701,-0.00003597,-0.00055358,0.00015483,-0.00060456
 ,-0.00466447,0.00101806,0.00348354,0.00021308,-0.00081024,0.00089650,0
 .00036941,-0.00032979,-0.00021793,-0.00227849,0.00311746,0.00380052,0.
 00846468,0.00783732,0.00705905,-0.08776688,-0.08905986,-0.05580757,-0.
 01535581,-0.00269504,-0.01404731,-0.00000153,0.00000381,-0.00000073,-0
 .00000226,-0.00000059,-0.00000041,-0.00000357,-0.00000568,-0.00000207,
 -0.00000007,-0.00000233,0.00000100,0.00036690,0.00029162,0.00032766,0.
 00192320,-0.00177193,-0.00139942,0.09736509,0.08427310,-0.00004741,-0.
 00002660,-0.00009819,0.00002895,-0.00000261,0.00002063,-0.00000198,-0.
 00000777,-0.00000519,-0.00000188,-0.00000806,-0.00000384,0.00000648,-0
 .00000107,-0.00000046,-0.00000709,-0.00000144,0.00000244,0.00000795,0.
 00001383,0.00001533,0.00031101,0.00007927,0.00000021,0.00030004,0.0002
 6730,0.00048313,0.00000649,0.00347894,0.00054777,0.00082364,0.00077356
 ,-0.00055081,0.00009195,-0.00031114,0.00000717,-0.00130182,0.00399378,
 -0.00365815,-0.02142621,-0.01237151,-0.00947885,-0.12591069,-0.0561998
 6,-0.15076875,0.01030762,0.00580233,0.01036867,0.00000209,0.00000098,0
 .,-0.00000092,-0.00000009,-0.00000060,-0.00000044,-0.00000012,-0.00000
 033,-0.00000050,0.00000525,-0.00000293,-0.00090058,-0.00056417,-0.0004
 9154,0.00115799,-0.00113613,0.00038990,0.13575492,0.05765840,0.1533487
 8,-0.00068997,-0.00048380,-0.00047159,0.00036899,-0.00007605,-0.000037
 95,0.00001854,0.00001194,0.00003935,-0.00010313,-0.00003942,-0.0000794
 6,0.00010638,0.00004633,0.00005141,-0.00005733,-0.00001228,0.00000534,
 0.00006467,0.00009835,0.00016590,0.00088773,-0.00050419,0.00054512,-0.
 00213212,0.00440823,0.00035634,0.00222542,0.00718440,-0.02110913,-0.00
 042030,-0.00425604,-0.00220157,-0.00044541,-0.00001687,-0.00124353,-0.
 00099480,-0.00010181,0.00014380,0.00059971,-0.00553743,-0.00014240,0.0
 0723001,-0.00659691,0.01749343,-0.05494628,0.00502614,-0.03502597,0.00
 000954,-0.00000410,0.00000043,0.00000721,0.00000454,0.00000296,0.00000
 947,0.00001274,0.00000507,-0.00000428,0.00002502,-0.00001165,-0.000176
 74,0.00025090,0.00012206,0.00012258,-0.00020919,0.00083414,-0.00114233
 ,0.00242920,0.00080039,0.04946242,-0.00105719,-0.00001150,-0.00017146,
 0.00026397,-0.00001340,0.00004141,-0.00002062,-0.00011223,-0.00007241,
 -0.00006735,-0.00001124,-0.00008306,0.00011560,-0.00000931,0.00001077,
 -0.00014003,-0.00002297,0.00003042,0.00023630,0.00016964,0.00017900,0.
 00227840,0.00006353,0.00071411,0.00083721,-0.00169634,-0.00119925,-0.0
 0213558,0.00853681,-0.01058937,-0.00357182,0.00230037,0.00043793,-0.00
 047022,0.00009628,-0.00072746,-0.00041268,-0.00082865,-0.00084678,-0.0
 0566817,0.00057799,0.00268540,0.00414865,-0.00078119,0.01942428,0.0044
 0883,-0.08850902,0.10324423,0.00001114,-0.00000119,-0.00000004,0.00000
 259,-0.00000163,-0.00000443,0.00000661,0.00000682,0.00000366,-0.000002
 81,0.00000498,-0.00002056,0.00025831,-0.00025480,-0.00007606,0.0002914
 0,-0.00028592,0.00085015,0.00234716,-0.00162795,-0.00144307,-0.0016597
 0,0.08241092,0.00012819,-0.00003134,0.00013419,-0.00000890,-0.00000481
 ,-0.00000812,0.00003001,-0.00000219,0.00000759,0.00001673,-0.00000664,
 -0.00003348,-0.00001335,-0.00000467,-0.00000309,-0.00000512,0.00002416
 ,0.00002338,0.00001616,-0.00002591,0.00000158,-0.00010357,-0.00005986,
 0.00002479,0.00403141,0.00138458,-0.00014946,-0.00135131,0.00723242,-0
 .01161850,-0.00370719,-0.00001143,-0.00005144,0.00003929,0.00020419,-0
 .00055242,0.00023384,-0.00065995,0.00061860,-0.00017805,0.00266765,0.0
 0178767,-0.00329006,0.00050907,-0.00299152,-0.03664712,0.10250729,-0.3
 0348136,0.00000282,0.00000122,0.00000163,0.00000133,0.00000040,0.00000
 029,0.00000415,0.00000038,-0.00000061,-0.00000419,0.00000650,-0.000005
 23,0.00009936,-0.00012881,-0.00009599,-0.00016846,0.00000955,-0.000197
 40,0.00111653,-0.00122437,-0.00012438,0.03975751,-0.11238742,0.3167132
 8\\-0.00000253,-0.00000248,0.00000007,-0.00000116,-0.00000027,0.000000
 33,0.00000056,0.00000168,0.00000344,0.00000099,0.00000047,0.00000140,-
 0.00000077,-0.00000159,-0.00000032,0.00000027,0.00000044,0.00000076,-0
 .00000100,-0.00000074,0.,0.00000494,0.00000422,-0.00000174,-0.00000411
 ,-0.00000720,0.00000130,0.00000847,0.00000314,0.00000067,0.00000613,0.
 00000578,0.00000615,-0.00000558,-0.00000096,-0.00000375,0.00000629,-0.
 00000074,0.00001874,-0.00000123,0.00000162,-0.00000515,0.00001841,0.00
 001737,0.00001433,-0.00000529,-0.00000997,0.00000329,-0.00000067,0.000
 00043,0.00000025,-0.00000021,-0.00000057,0.00000008,0.00000017,-0.0000
 0057,0.00000065,-0.00000055,0.00000098,0.00000099,-0.00000180,0.000001
 82,-0.00001859,-0.00000446,-0.00000496,0.00000067,-0.00001482,-0.00000
 861,-0.00001281,-0.00000203,0.00000070,-0.00001075\\\@
 The archive entry for this job was punched.


 The most important thing in communication is to hear what isn't being said.
 -- Peter F. Drucker
 Job cpu time:       0 days  0 hours 23 minutes 17.9 seconds.
 Elapsed time:       0 days  0 hours  2 minutes 52.5 seconds.
 File lengths (MBytes):  RWF=    245 Int=      0 D2E=      0 Chk=      6 Scr=      1
 Normal termination of Gaussian 16 at Fri Mar  6 17:34:45 2026.
