 Entering Gaussian System, Link 0=g16
 Initial command:
 /prod/precompiled/gaussian/16c2/g16/l1.exe "/scratch/ucsscms/svela/2076358/Gau-1224677.inp" -scrdir="/scratch/ucsscms/svela/2076358/"
 Entering Link 1 = /prod/precompiled/gaussian/16c2/g16/l1.exe PID=   1224679.
  
 Copyright (c) 1988-2021, Gaussian, Inc.  All Rights Reserved.
  
 This is part of the Gaussian(R) 16 program.  It is based on
 the Gaussian(R) 09 system (copyright 2009, Gaussian, Inc.),
 the Gaussian(R) 03 system (copyright 2003, Gaussian, Inc.),
 the Gaussian(R) 98 system (copyright 1998, Gaussian, Inc.),
 the Gaussian(R) 94 system (copyright 1995, Gaussian, Inc.),
 the Gaussian 92(TM) system (copyright 1992, Gaussian, Inc.),
 the Gaussian 90(TM) system (copyright 1990, Gaussian, Inc.),
 the Gaussian 88(TM) system (copyright 1988, Gaussian, Inc.),
 the Gaussian 86(TM) system (copyright 1986, Carnegie Mellon
 University), and the Gaussian 82(TM) system (copyright 1983,
 Carnegie Mellon University). Gaussian is a federally registered
 trademark of Gaussian, Inc.
  
 This software contains proprietary and confidential information,
 including trade secrets, belonging to Gaussian, Inc.
  
 This software is provided under written license and may be
 used, copied, transmitted, or stored only in accord with that
 written license.
  
 The following legend is applicable only to US Government
 contracts under FAR:
  
                    RESTRICTED RIGHTS LEGEND
  
 Use, reproduction and disclosure by the US Government is
 subject to restrictions as set forth in subparagraphs (a)
 and (c) of the Commercial Computer Software - Restricted
 Rights clause in FAR 52.227-19.
  
 Gaussian, Inc.
 340 Quinnipiac St., Bldg. 40, Wallingford CT 06492
  
  
 ---------------------------------------------------------------
 Warning -- This program may not be used in any manner that
 competes with the business of Gaussian, Inc. or will provide
 assistance to any competitor of Gaussian, Inc.  The licensee
 of this program is prohibited from giving any competitor of
 Gaussian, Inc. access to this program.  By using this program,
 the user acknowledges that Gaussian, Inc. is engaged in the
 business of creating and licensing software in the field of
 computational chemistry and represents and warrants to the
 licensee that it is not a competitor of Gaussian, Inc. and that
 it will not use this program in any manner prohibited above.
 ---------------------------------------------------------------
  

 Cite this work as:
 Gaussian 16, Revision C.02,
 M. J. Frisch, G. W. Trucks, H. B. Schlegel, G. E. Scuseria, 
 M. A. Robb, J. R. Cheeseman, G. Scalmani, V. Barone, 
 G. A. Petersson, H. Nakatsuji, X. Li, M. Caricato, A. V. Marenich, 
 J. Bloino, B. G. Janesko, R. Gomperts, B. Mennucci, H. P. Hratchian, 
 J. V. Ortiz, A. F. Izmaylov, J. L. Sonnenberg, D. Williams-Young, 
 F. Ding, F. Lipparini, F. Egidi, J. Goings, B. Peng, A. Petrone, 
 T. Henderson, D. Ranasinghe, V. G. Zakrzewski, J. Gao, N. Rega, 
 G. Zheng, W. Liang, M. Hada, M. Ehara, K. Toyota, R. Fukuda, 
 J. Hasegawa, M. Ishida, T. Nakajima, Y. Honda, O. Kitao, H. Nakai, 
 T. Vreven, K. Throssell, J. A. Montgomery, Jr., J. E. Peralta, 
 F. Ogliaro, M. J. Bearpark, J. J. Heyd, E. N. Brothers, K. N. Kudin, 
 V. N. Staroverov, T. A. Keith, R. Kobayashi, J. Normand, 
 K. Raghavachari, A. P. Rendell, J. C. Burant, S. S. Iyengar, 
 J. Tomasi, M. Cossi, J. M. Millam, M. Klene, C. Adamo, R. Cammi, 
 J. W. Ochterski, R. L. Martin, K. Morokuma, O. Farkas, 
 J. B. Foresman, and D. J. Fox, Gaussian, Inc., Wallingford CT, 2019.
 
 ******************************************
 Gaussian 16:  ES64L-G16RevC.02  7-Dec-2021
                 6-Mar-2026 
 ******************************************
 %nprocs=12
 Will use up to   12 processors via shared memory.
 %mem=18gb
 %chk=test_trans_opt_r1.chk
 ----------------------------------------------------------------------
 #p nosymm scf=(maxconventionalcycles=200,xqc) wB97XD def2SVP opt=(Reca
 lcFC=30,cartesian,skipdihedral)
 ----------------------------------------------------------------------
 1/10=7,18=10,26=3,38=1,71=30,156=2/1,3;
 2/12=2,15=1,17=6,18=5,29=2,40=1/2;
 3/5=43,7=101,11=2,25=1,30=1,71=2,74=-58,140=1/1,2,3;
 4//1;
 5/5=2,8=3,13=1,38=5,85=200/2,8;
 8/6=4,10=90,11=11/1;
 11/6=1,8=1,9=11,15=111,16=1,31=1/1,2,10;
 10/6=1,31=1/2;
 6/7=2,8=2,9=2,10=2,28=1/1;
 7/7=1,10=1,25=1,30=1/1,2,3,16;
 1/10=7,18=10,26=3,71=30,156=2/3(3);
 2/15=1,29=1/2;
 7/7=1,9=1,25=1,30=1,44=-1/16;
 99/12=1/99;
 2/15=1,29=1/2;
 3/5=43,7=101,11=2,25=1,30=1,71=2,74=-58,140=1/1,2,3;
 4/5=5,16=3,69=1/1;
 5/5=2,8=3,13=1,38=5,85=200/2,8;
 8/6=4,10=90,11=11/1;
 11/6=1,8=1,9=11,15=111,16=1,31=1/1,2,10;
 10/6=1,31=1/2;
 7/7=1,10=1,25=1,30=1/1,2,3,16;
 1/18=10,26=3,71=30,156=2/3(-8);
 2/15=1,29=1/2;
 6/7=2,8=2,9=2,10=2,19=2,28=1/1;
 7/7=1,9=1,25=1,30=1,44=-1/16;
 99/9=1,12=1/99;
 Leave Link    1 at Fri Mar  6 16:25:19 2026, MaxMem=  2415919104 cpu:               0.1 elap:               0.1
 (Enter /prod/precompiled/gaussian/16c2/g16/l101.exe)
 ----------
 Title Card
 ----------
 Symbolic Z-matrix:
 Charge =  0 Multiplicity = 1
 C                     0.        0.        0. 
 C                    -0.62457  -1.26895  -0.02291 
 Cl                   -2.34148  -1.52739  -0.01922 
 C                     0.13832  -2.44986  -0.04002 
 C                     1.52847  -2.40381  -0.02861 
 C                     2.16869  -1.17248  -0.01575 
 C                     1.41284   0.00998  -0.00898 
 N                    -0.62529   1.2826    0.04765 
 N                    -1.86429   1.24305  -0.06339 
 C                    -2.4996    2.50289  -0.10536 
 C                    -2.18133   3.53035  -1.00883 
 Cl                   -0.88783   3.39674  -2.15143 
 C                    -2.9456    4.70685  -1.05354 
 C                    -4.04292   4.87047  -0.20888 
 C                    -4.38899   3.85585   0.67508 
 C                    -3.62735   2.68047   0.71937 
 H                    -0.35996  -3.41643  -0.05639 
 H                     2.10235  -3.32782  -0.02999 
 H                     3.25614  -1.1299   -0.00818 
 H                     1.94248   0.96176  -0.00748 
 H                    -2.69649   5.4916   -1.76229 
 H                    -4.63311   5.78391  -0.2542 
 H                    -5.25746   3.96911   1.32096 
 H                    -3.93176   1.8812    1.39205 
 
 ITRead=  0  0  0  0  0  0  0  0  0  0  0  0  0  0  0  0  0  0  0  0
 ITRead=  0  0  0  0
 MicOpt= -1 -1 -1 -1 -1 -1 -1 -1 -1 -1 -1 -1 -1 -1 -1 -1 -1 -1 -1 -1
 MicOpt= -1 -1 -1 -1
 NAtoms=     24 NQM=       24 NQMF=       0 NMMI=      0 NMMIF=      0
                NMic=       0 NMicF=      0.
                    Isotopes and Nuclear Properties:
 (Nuclear quadrupole moments (NQMom) in fm**2, nuclear magnetic moments (NMagM)
  in nuclear magnetons)

  Atom         1           2           3           4           5           6           7           8           9          10
 IAtWgt=          12          12          35          12          12          12          12          14          14          12
 AtmWgt=  12.0000000  12.0000000  34.9688527  12.0000000  12.0000000  12.0000000  12.0000000  14.0030740  14.0030740  12.0000000
 NucSpn=           0           0           3           0           0           0           0           2           2           0
 AtZEff=  -0.0000000  -0.0000000  -0.0000000  -0.0000000  -0.0000000  -0.0000000  -0.0000000  -0.0000000  -0.0000000  -0.0000000
 NQMom=    0.0000000   0.0000000  -8.1650000   0.0000000   0.0000000   0.0000000   0.0000000   2.0440000   2.0440000   0.0000000
 NMagM=    0.0000000   0.0000000   0.8218740   0.0000000   0.0000000   0.0000000   0.0000000   0.4037610   0.4037610   0.0000000
 AtZNuc=   6.0000000   6.0000000  17.0000000   6.0000000   6.0000000   6.0000000   6.0000000   7.0000000   7.0000000   6.0000000

  Atom        11          12          13          14          15          16          17          18          19          20
 IAtWgt=          12          35          12          12          12          12           1           1           1           1
 AtmWgt=  12.0000000  34.9688527  12.0000000  12.0000000  12.0000000  12.0000000   1.0078250   1.0078250   1.0078250   1.0078250
 NucSpn=           0           3           0           0           0           0           1           1           1           1
 AtZEff=  -0.0000000  -0.0000000  -0.0000000  -0.0000000  -0.0000000  -0.0000000  -0.0000000  -0.0000000  -0.0000000  -0.0000000
 NQMom=    0.0000000  -8.1650000   0.0000000   0.0000000   0.0000000   0.0000000   0.0000000   0.0000000   0.0000000   0.0000000
 NMagM=    0.0000000   0.8218740   0.0000000   0.0000000   0.0000000   0.0000000   2.7928460   2.7928460   2.7928460   2.7928460
 AtZNuc=   6.0000000  17.0000000   6.0000000   6.0000000   6.0000000   6.0000000   1.0000000   1.0000000   1.0000000   1.0000000

  Atom        21          22          23          24
 IAtWgt=           1           1           1           1
 AtmWgt=   1.0078250   1.0078250   1.0078250   1.0078250
 NucSpn=           1           1           1           1
 AtZEff=  -0.0000000  -0.0000000  -0.0000000  -0.0000000
 NQMom=    0.0000000   0.0000000   0.0000000   0.0000000
 NMagM=    2.7928460   2.7928460   2.7928460   2.7928460
 AtZNuc=   1.0000000   1.0000000   1.0000000   1.0000000
 Leave Link  101 at Fri Mar  6 16:25:19 2026, MaxMem=  2415919104 cpu:               0.1 elap:               0.1
 (Enter /prod/precompiled/gaussian/16c2/g16/l103.exe)

 GradGradGradGradGradGradGradGradGradGradGradGradGradGradGradGradGradGrad
 Berny optimization.
 Initialization pass.
 No Z-matrix variables, so optimization will use Cartesian coordinates.
 Trust Radius=3.00D-01 FncErr=1.00D-07 GrdErr=1.00D-06 EigMax=2.50D+02 EigMin=1.00D-04
 Number of steps in this run=     82 maximum allowed number of steps=    144.
 Step   0 in ReCalcFC=30 IGetFC= 4 compute analytic Hessian.
 GradGradGradGradGradGradGradGradGradGradGradGradGradGradGradGradGradGrad

 Leave Link  103 at Fri Mar  6 16:25:19 2026, MaxMem=  2415919104 cpu:               0.1 elap:               0.1
 (Enter /prod/precompiled/gaussian/16c2/g16/l202.exe)
 ---------------------------------------------------------------------------------------------------
                            Z-MATRIX (ANGSTROMS AND DEGREES)
   CD    Cent   Atom    N1       Length/X        N2       Alpha/Y        N3        Beta/Z          J
 ---------------------------------------------------------------------------------------------------
      1      1  C        0   0.000000          0.000000          0.000000
      2      2  C        0  -0.624566         -1.268954         -0.022909
      3      3  Cl       0  -2.341482         -1.527393         -0.019219
      4      4  C        0   0.138319         -2.449861         -0.040023
      5      5  C        0   1.528466         -2.403814         -0.028608
      6      6  C        0   2.168692         -1.172481         -0.015749
      7      7  C        0   1.412841          0.009984         -0.008980
      8      8  N        0  -0.625286          1.282597          0.047647
      9      9  N        0  -1.864287          1.243048         -0.063390
     10     10  C        0  -2.499598          2.502889         -0.105363
     11     11  C        0  -2.181332          3.530354         -1.008834
     12     12  Cl       0  -0.887826          3.396742         -2.151429
     13     13  C        0  -2.945601          4.706854         -1.053542
     14     14  C        0  -4.042916          4.870468         -0.208877
     15     15  C        0  -4.388993          3.855854          0.675081
     16     16  C        0  -3.627348          2.680471          0.719371
     17     17  H        0  -0.359960         -3.416429         -0.056393
     18     18  H        0   2.102346         -3.327824         -0.029994
     19     19  H        0   3.256144         -1.129897         -0.008181
     20     20  H        0   1.942475          0.961763         -0.007483
     21     21  H        0  -2.696488          5.491597         -1.762291
     22     22  H        0  -4.633113          5.783910         -0.254197
     23     23  H        0  -5.257465          3.969114          1.320964
     24     24  H        0  -3.931762          1.881204          1.392047
 ---------------------------------------------------------------------------------------------------
                         Z-Matrix orientation:                         
 ---------------------------------------------------------------------
 Center     Atomic      Atomic             Coordinates (Angstroms)
 Number     Number       Type             X           Y           Z
 ---------------------------------------------------------------------
      1          6           0        0.000000    0.000000    0.000000
      2          6           0       -0.624566   -1.268954   -0.022909
      3         17           0       -2.341482   -1.527393   -0.019219
      4          6           0        0.138319   -2.449861   -0.040023
      5          6           0        1.528466   -2.403814   -0.028608
      6          6           0        2.168692   -1.172481   -0.015749
      7          6           0        1.412841    0.009984   -0.008980
      8          7           0       -0.625286    1.282597    0.047647
      9          7           0       -1.864287    1.243048   -0.063390
     10          6           0       -2.499598    2.502889   -0.105363
     11          6           0       -2.181332    3.530354   -1.008834
     12         17           0       -0.887826    3.396742   -2.151429
     13          6           0       -2.945601    4.706854   -1.053542
     14          6           0       -4.042916    4.870468   -0.208877
     15          6           0       -4.388993    3.855854    0.675081
     16          6           0       -3.627348    2.680471    0.719371
     17          1           0       -0.359960   -3.416429   -0.056393
     18          1           0        2.102346   -3.327824   -0.029994
     19          1           0        3.256144   -1.129897   -0.008181
     20          1           0        1.942475    0.961763   -0.007483
     21          1           0       -2.696488    5.491597   -1.762291
     22          1           0       -4.633113    5.783910   -0.254197
     23          1           0       -5.257465    3.969114    1.320964
     24          1           0       -3.931762    1.881204    1.392047
 ---------------------------------------------------------------------
                    Distance matrix (angstroms):
                    1          2          3          4          5
     1  C    0.000000
     2  C    1.414515   0.000000
     3  Cl   2.795682   1.736262   0.000000
     4  C    2.454089   1.405997   2.645901   0.000000
     5  C    2.848745   2.433821   3.967959   1.390956   0.000000
     6  C    2.465397   2.794933   4.524118   2.398896   1.387889
     7  C    1.412905   2.405598   4.056917   2.770597   2.416645
     8  N    1.427693   2.552526   3.293303   3.810777   4.270139
     9  N    2.241596   2.801553   2.811585   4.201018   4.981123
    10  C    3.538862   4.212997   4.034302   5.611828   6.348774
    11  C    4.270756   5.140907   5.156141   6.487091   7.066668
    12  Cl   4.117613   5.135039   5.559365   6.300300   6.632593
    13  C    5.651636   6.493049   6.348277   7.858521   8.463413
    14  C    6.333266   7.029381   6.622950   8.431990   9.164495
    15  C    5.881038   6.397012   5.801181   7.795510   8.642624
    16  C    4.567283   5.016536   4.461512   6.409152   7.279550
    17  H    3.435802   2.163975   2.737931   1.087568   2.142968
    18  H    3.936391   3.416876   4.794713   2.151353   1.087720
    19  H    3.446623   3.883229   5.611733   3.385875   2.146661
    20  H    2.167545   3.400888   4.954626   3.859432   3.391011
    21  H    6.366660   7.281714   7.240894   8.606340   9.121042
    22  H    7.415117   8.115715   7.665634   9.518793  10.249623
    23  H    6.718612   7.120892   6.364797   8.495293   9.406616
    24  H    4.575530   4.781542   4.017362   6.113469   7.084753
                    6          7          8          9         10
     6  C    0.000000
     7  C    1.403417   0.000000
     8  N    3.719911   2.403479   0.000000
     9  N    4.701273   3.501853   1.244595   0.000000
    10  C    5.942163   4.640156   2.241778   1.411588   0.000000
    11  C    6.482714   5.129405   2.930843   2.495226   1.404720
    12  Cl   5.897561   4.620962   3.061776   3.154644   2.753755
    13  C    7.861271   6.492127   4.280422   3.761329   2.440374
    14  C    8.668253   7.309552   4.961735   4.233883   2.828069
    15  C    8.292444   6.994279   4.602262   3.707592   2.451412
    16  C    6.998551   5.750261   3.379000   2.405677   1.408383
    17  H    3.380981   3.858157   4.707661   4.896302   6.294345
    18  H    2.156411   3.408346   5.357423   6.052121   7.428377
    19  H    1.088312   2.167278   4.570420   5.643822   6.806992
    20  H    2.146215   1.089219   2.588314   3.817549   4.702836
    21  H    8.433879   7.071688   5.028065   4.650698   3.422945
    22  H    9.732049   8.363726   6.034534   5.321864   3.916521
    23  H    9.130751   7.869971   5.504161   4.567442   3.433665
    24  H    6.965804   5.833449   3.619188   2.607680   2.163290
                   11         12         13         14         15
    11  C    0.000000
    12  Cl   1.731050   0.000000
    13  C    1.403659   2.675105   0.000000
    14  C    2.429266   3.987477   1.394392   0.000000
    15  C    2.795583   4.523065   2.407430   1.389458   0.000000
    16  C    2.408310   4.032309   2.777450   2.414628   1.401282
    17  H    7.244469   7.147525   8.582982   9.069734   8.345913
    18  H    8.145099   7.659073   9.543871  10.247353   9.707721
    19  H    7.230864   6.500497   8.580331   9.450975   9.152742
    20  H    4.960458   4.305372   6.246057   7.151464   6.994937
    21  H    2.163228   2.794835   1.086372   2.147502   3.388364
    22  H    3.414560   4.829621   2.155620   1.088468   2.154194
    23  H    3.883692   5.610603   3.395181   2.151274   1.088226
    24  H    3.398225   4.911072   3.864934   3.392788   2.149964
                   16         17         18         19         20
    16  C    0.000000
    17  H    6.960591   0.000000
    18  H    8.336099   2.464041   0.000000
    19  H    7.901310   4.278640   2.482460   0.000000
    20  H    5.874113   4.946935   4.292624   2.469973   0.000000
    21  H    3.863622   9.366023  10.188810   9.074961   6.717047
    22  H    3.404516  10.146191  11.333154  10.492932   8.157961
    23  H    2.163284   8.968217  10.451661  10.012396   7.915053
    24  H    1.088112   6.551386   8.097323   7.917914   6.108250
                   21         22         23         24
    21  H    0.000000
    22  H    2.471904   0.000000
    23  H    4.287542   2.482827   0.000000
    24  H    4.950827   4.293382   2.474249   0.000000
 Symmetry turned off by external request.
 Stoichiometry    C12H8Cl2N2
 Framework group  C1[X(C12H8Cl2N2)]
 Deg. of freedom    66
 Full point group                 C1      NOp   1
 Rotational constants (GHZ):           0.8541276           0.2479620           0.2065992
 Leave Link  202 at Fri Mar  6 16:25:20 2026, MaxMem=  2415919104 cpu:               0.1 elap:               0.0
 (Enter /prod/precompiled/gaussian/16c2/g16/l301.exe)
 Standard basis: def2SVP (5D, 7F)
 Ernie: Thresh=  0.10000D-02 Tol=  0.10000D-05 Strict=F.
   272 basis functions,   480 primitive gaussians,   288 cartesian basis functions
    64 alpha electrons       64 beta electrons
       nuclear repulsion energy      1195.1170709705 Hartrees.
 IExCor= 4639 DFT=T Ex+Corr=wB97XD ExCW=0 ScaHFX=  1.000000
 ScaDFX=  1.000000  1.000000  1.000000  1.000000 ScalE2=  1.000000  1.000000
 IRadAn=      5 IRanWt=     -1 IRanGd=            0 ICorTp=0 IEmpDi=121
 HFx  wShort=  0.000000 wLong=  0.200000 cFull=  0.222036 cShort=  0.000000 cLong=  0.777964
 DFx  wShort=  0.000000 wLong=  0.200000 cFull=  0.000000 cShort=  0.000000 cLong=  1.000000
 NAtoms=   24 NActive=   24 NUniq=   24 SFac= 1.00D+00 NAtFMM=   60 NAOKFM=F Big=F
 Integral buffers will be    131072 words long.
 Raffenetti 2 integral format.
 Two-electron integral symmetry is turned off.
 R6Disp:  Grimme-D2 Dispersion energy=       -0.0134074322 Hartrees.
 Nuclear repulsion after empirical dispersion term =     1195.1036635383 Hartrees.
 Leave Link  301 at Fri Mar  6 16:25:20 2026, MaxMem=  2415919104 cpu:               0.1 elap:               0.1
 (Enter /prod/precompiled/gaussian/16c2/g16/l302.exe)
 NPDir=0 NMtPBC=     1 NCelOv=     1 NCel=       1 NClECP=     1 NCelD=      1
         NCelK=      1 NCelE2=     1 NClLst=     1 CellRange=     0.0.
 One-electron integrals computed using PRISM.
   1 Symmetry operations used in ECPInt.
 ECPInt:  NShTT=    7750 NPrTT=   30142 LenC2=    6985 LenP2D=   18897.
 LDataN:  DoStor=T MaxTD1= 4 Len=   56
 NBasis=   272 RedAO= T EigKep=  2.33D-04  NBF=   272
 NBsUse=   272 1.00D-06 EigRej= -1.00D+00 NBFU=   272
 Precomputing XC quadrature grid using
 IXCGrd= 4 IRadAn=           5 IRanWt=          -1 IRanGd=           0 AccXCQ= 0.00D+00.
 Generated NRdTot=       0 NPtTot=           0 NUsed=           0 NTot=          32
 NSgBfM=   286   286   286   286   286 MxSgAt=    24 MxSgA2=    24.
 Leave Link  302 at Fri Mar  6 16:25:20 2026, MaxMem=  2415919104 cpu:               1.5 elap:               0.7
 (Enter /prod/precompiled/gaussian/16c2/g16/l303.exe)
 DipDrv:  MaxL=1.
 Leave Link  303 at Fri Mar  6 16:25:21 2026, MaxMem=  2415919104 cpu:               0.3 elap:               0.1
 (Enter /prod/precompiled/gaussian/16c2/g16/l401.exe)
 ExpMin= 1.22D-01 ExpMax= 1.04D+04 ExpMxC= 1.57D+03 IAcc=3 IRadAn=         5 AccDes= 0.00D+00
 Harris functional with IExCor= 4639 and IRadAn=       5 diagonalized for initial guess.
 HarFok:  IExCor= 4639 AccDes= 0.00D+00 IRadAn=         5 IDoV= 1 UseB2=F ITyADJ=14
 ICtDFT=  3500011 ScaDFX=  1.000000  1.000000  1.000000  1.000000
 FoFCou: FMM=F IPFlag=           0 FMFlag=      100000 FMFlg1=           0
         NFxFlg=           0 DoJE=T BraDBF=F KetDBF=T FulRan=T
         wScrn=  0.000000 ICntrl=       500 IOpCl=  0 I1Cent=   200000004 NGrid=           0
         NMat0=    1 NMatS0=      1 NMatT0=    0 NMatD0=    1 NMtDS0=    0 NMtDT0=    0
 Symmetry not used in FoFCou.
 Harris En= -1450.79474770632    
 JPrj=0 DoOrth=F DoCkMO=F.
 Leave Link  401 at Fri Mar  6 16:25:21 2026, MaxMem=  2415919104 cpu:               5.1 elap:               0.6
 (Enter /prod/precompiled/gaussian/16c2/g16/l502.exe)
 Two-electron integral symmetry not used.
 Closed shell SCF:
 Using DIIS extrapolation, IDIIS=  1040.
 NGot=  2415919104 LenX=  2415746906 LenY=  2415663521
 Requested convergence on RMS density matrix=1.00D-08 within 200 cycles.
 Requested convergence on MAX density matrix=1.00D-06.
 Requested convergence on             energy=1.00D-06.
 No special actions if energy rises.
 Fock matrices will be formed incrementally for  20 cycles.
 Integral accuracy reduced to 1.0D-05 until final iterations.

 Cycle   1  Pass 0  IDiag  1:
 FoFJK:  IHMeth= 1 ICntrl=       0 DoSepK=T KAlg= 0 I1Cent=           0 FoldK=F
 IRaf=         1 NMat=       1 IRICut=       1 DoRegI=T DoRafI=F ISym2E= 0 IDoP0=0 IntGTp=1.
 FoFCou: FMM=F IPFlag=           0 FMFlag=      100000 FMFlg1=           0
         NFxFlg=           0 DoJE=T BraDBF=F KetDBF=F FulRan=T
         wScrn=  0.000000 ICntrl=       500 IOpCl=  0 I1Cent=           0 NGrid=           0
         NMat0=    1 NMatS0=      1 NMatT0=    0 NMatD0=    1 NMtDS0=    0 NMtDT0=    0
 Symmetry not used in FoFCou.
 E= -1490.61934524855    
 DIIS: error= 4.52D-02 at cycle   1 NSaved=   1.
 NSaved= 1 IEnMin= 1 EnMin= -1490.61934524855     IErMin= 1 ErrMin= 4.52D-02
 ErrMax= 4.52D-02  0.00D+00 EMaxC= 1.00D-01 BMatC= 7.05D-01 BMatP= 7.05D-01
 IDIUse=3 WtCom= 5.48D-01 WtEn= 4.52D-01
 Coeff-Com:  0.100D+01
 Coeff-En:   0.100D+01
 Coeff:      0.100D+01
 Gap=     0.397 Goal=   None    Shift=    0.000
 GapD=    0.397 DampG=1.000 DampE=0.500 DampFc=0.5000 IDamp=-1.
 Damping current iteration by 5.00D-01
 RMSDP=6.19D-03 MaxDP=2.73D-01              OVMax= 2.27D-01

 Cycle   2  Pass 0  IDiag  1:
 RMSU=  3.05D-03    CP:  9.80D-01
 E= -1490.82068719528     Delta-E=       -0.201341946722 Rises=F Damp=T
 DIIS: error= 1.45D-02 at cycle   2 NSaved=   2.
 NSaved= 2 IEnMin= 2 EnMin= -1490.82068719528     IErMin= 2 ErrMin= 1.45D-02
 ErrMax= 1.45D-02  0.00D+00 EMaxC= 1.00D-01 BMatC= 9.12D-02 BMatP= 7.05D-01
 IDIUse=3 WtCom= 8.55D-01 WtEn= 1.45D-01
 Coeff-Com: -0.264D+00 0.126D+01
 Coeff-En:   0.000D+00 0.100D+01
 Coeff:     -0.225D+00 0.123D+01
 Gap=     0.379 Goal=   None    Shift=    0.000
 RMSDP=2.19D-03 MaxDP=7.13D-02 DE=-2.01D-01 OVMax= 1.88D-01

 Cycle   3  Pass 0  IDiag  1:
 RMSU=  2.05D-03    CP:  9.64D-01  1.21D+00
 E= -1490.99742649455     Delta-E=       -0.176739299273 Rises=F Damp=F
 DIIS: error= 7.07D-03 at cycle   3 NSaved=   3.
 NSaved= 3 IEnMin= 3 EnMin= -1490.99742649455     IErMin= 3 ErrMin= 7.07D-03
 ErrMax= 7.07D-03  0.00D+00 EMaxC= 1.00D-01 BMatC= 2.80D-02 BMatP= 9.12D-02
 IDIUse=3 WtCom= 9.29D-01 WtEn= 7.07D-02
 Coeff-Com: -0.188D+00 0.519D+00 0.668D+00
 Coeff-En:   0.000D+00 0.000D+00 0.100D+01
 Coeff:     -0.175D+00 0.483D+00 0.692D+00
 Gap=     0.293 Goal=   None    Shift=    0.000
 RMSDP=1.04D-03 MaxDP=2.83D-02 DE=-1.77D-01 OVMax= 5.72D-02

 Cycle   4  Pass 0  IDiag  1:
 RMSU=  7.63D-04    CP:  9.58D-01  1.37D+00  7.76D-01
 E= -1491.02528301580     Delta-E=       -0.027856521246 Rises=F Damp=F
 DIIS: error= 1.95D-03 at cycle   4 NSaved=   4.
 NSaved= 4 IEnMin= 4 EnMin= -1491.02528301580     IErMin= 4 ErrMin= 1.95D-03
 ErrMax= 1.95D-03  0.00D+00 EMaxC= 1.00D-01 BMatC= 3.01D-03 BMatP= 2.80D-02
 IDIUse=3 WtCom= 9.80D-01 WtEn= 1.95D-02
 Coeff-Com: -0.589D-01 0.126D+00 0.311D+00 0.622D+00
 Coeff-En:   0.000D+00 0.000D+00 0.000D+00 0.100D+01
 Coeff:     -0.578D-01 0.124D+00 0.304D+00 0.630D+00
 Gap=     0.276 Goal=   None    Shift=    0.000
 RMSDP=2.92D-04 MaxDP=1.07D-02 DE=-2.79D-02 OVMax= 2.03D-02

 Cycle   5  Pass 0  IDiag  1:
 RMSU=  1.65D-04    CP:  9.57D-01  1.38D+00  8.68D-01  8.09D-01
 E= -1491.02832363907     Delta-E=       -0.003040623273 Rises=F Damp=F
 DIIS: error= 6.84D-04 at cycle   5 NSaved=   5.
 NSaved= 5 IEnMin= 5 EnMin= -1491.02832363907     IErMin= 5 ErrMin= 6.84D-04
 ErrMax= 6.84D-04  0.00D+00 EMaxC= 1.00D-01 BMatC= 2.65D-04 BMatP= 3.01D-03
 IDIUse=3 WtCom= 9.93D-01 WtEn= 6.84D-03
 Coeff-Com: -0.133D-01 0.204D-01 0.958D-01 0.302D+00 0.595D+00
 Coeff-En:   0.000D+00 0.000D+00 0.000D+00 0.000D+00 0.100D+01
 Coeff:     -0.132D-01 0.202D-01 0.951D-01 0.300D+00 0.598D+00
 Gap=     0.276 Goal=   None    Shift=    0.000
 RMSDP=8.25D-05 MaxDP=3.75D-03 DE=-3.04D-03 OVMax= 5.05D-03

 Cycle   6  Pass 0  IDiag  1:
 RMSU=  6.63D-05    CP:  9.57D-01  1.39D+00  8.74D-01  8.58D-01  8.38D-01
 E= -1491.02862798639     Delta-E=       -0.000304347325 Rises=F Damp=F
 DIIS: error= 2.78D-04 at cycle   6 NSaved=   6.
 NSaved= 6 IEnMin= 6 EnMin= -1491.02862798639     IErMin= 6 ErrMin= 2.78D-04
 ErrMax= 2.78D-04  0.00D+00 EMaxC= 1.00D-01 BMatC= 3.05D-05 BMatP= 2.65D-04
 IDIUse=3 WtCom= 9.97D-01 WtEn= 2.78D-03
 Coeff-Com:  0.987D-02-0.233D-01-0.390D-01-0.370D-01 0.203D+00 0.886D+00
 Coeff-En:   0.000D+00 0.000D+00 0.000D+00 0.000D+00 0.000D+00 0.100D+01
 Coeff:      0.984D-02-0.233D-01-0.388D-01-0.369D-01 0.202D+00 0.887D+00
 Gap=     0.277 Goal=   None    Shift=    0.000
 RMSDP=5.74D-05 MaxDP=1.41D-03 DE=-3.04D-04 OVMax= 4.48D-03

 Cycle   7  Pass 0  IDiag  1:
 RMSU=  3.14D-05    CP:  9.57D-01  1.39D+00  8.81D-01  9.00D-01  1.01D+00
                    CP:  1.16D+00
 E= -1491.02869711454     Delta-E=       -0.000069128142 Rises=F Damp=F
 DIIS: error= 1.21D-04 at cycle   7 NSaved=   7.
 NSaved= 7 IEnMin= 7 EnMin= -1491.02869711454     IErMin= 7 ErrMin= 1.21D-04
 ErrMax= 1.21D-04  0.00D+00 EMaxC= 1.00D-01 BMatC= 7.48D-06 BMatP= 3.05D-05
 IDIUse=3 WtCom= 9.99D-01 WtEn= 1.21D-03
 Coeff-Com:  0.692D-02-0.140D-01-0.353D-01-0.734D-01-0.108D-01 0.435D+00
 Coeff-Com:  0.692D+00
 Coeff-En:   0.000D+00 0.000D+00 0.000D+00 0.000D+00 0.000D+00 0.000D+00
 Coeff-En:   0.100D+01
 Coeff:      0.691D-02-0.139D-01-0.353D-01-0.733D-01-0.108D-01 0.434D+00
 Coeff:      0.692D+00
 Gap=     0.277 Goal=   None    Shift=    0.000
 RMSDP=2.06D-05 MaxDP=4.37D-04 DE=-6.91D-05 OVMax= 2.07D-03

 Cycle   8  Pass 0  IDiag  1:
 RMSU=  1.28D-05    CP:  9.57D-01  1.39D+00  8.84D-01  9.07D-01  1.07D+00
                    CP:  1.31D+00  9.60D-01
 E= -1491.02871137140     Delta-E=       -0.000014256862 Rises=F Damp=F
 DIIS: error= 4.10D-05 at cycle   8 NSaved=   8.
 NSaved= 8 IEnMin= 8 EnMin= -1491.02871137140     IErMin= 8 ErrMin= 4.10D-05
 ErrMax= 4.10D-05  0.00D+00 EMaxC= 1.00D-01 BMatC= 5.52D-07 BMatP= 7.48D-06
 IDIUse=1 WtCom= 1.00D+00 WtEn= 0.00D+00
 Coeff-Com:  0.304D-03-0.144D-03-0.367D-02-0.136D-01-0.263D-01 0.149D-01
 Coeff-Com:  0.181D+00 0.847D+00
 Coeff:      0.304D-03-0.144D-03-0.367D-02-0.136D-01-0.263D-01 0.149D-01
 Coeff:      0.181D+00 0.847D+00
 Gap=     0.277 Goal=   None    Shift=    0.000
 RMSDP=8.01D-06 MaxDP=2.09D-04 DE=-1.43D-05 OVMax= 8.84D-04

 Initial convergence to 1.0D-05 achieved.  Increase integral accuracy.
 Cycle   9  Pass 1  IDiag  1:
 E= -1491.02868970536     Delta-E=        0.000021666034 Rises=F Damp=F
 DIIS: error= 1.31D-04 at cycle   1 NSaved=   1.
 NSaved= 1 IEnMin= 1 EnMin= -1491.02868970536     IErMin= 1 ErrMin= 1.31D-04
 ErrMax= 1.31D-04  0.00D+00 EMaxC= 1.00D-01 BMatC= 1.19D-06 BMatP= 1.19D-06
 IDIUse=3 WtCom= 9.99D-01 WtEn= 1.31D-03
 Coeff-Com:  0.100D+01
 Coeff-En:   0.100D+01
 Coeff:      0.100D+01
 Gap=     0.277 Goal=   None    Shift=    0.000
 RMSDP=8.01D-06 MaxDP=2.09D-04 DE= 2.17D-05 OVMax= 5.78D-04

 Cycle  10  Pass 1  IDiag  1:
 RMSU=  1.09D-04    CP:  1.00D+00
 E= -1491.02869132486     Delta-E=       -0.000001619499 Rises=F Damp=F
 DIIS: error= 1.46D-05 at cycle   2 NSaved=   2.
 NSaved= 2 IEnMin= 2 EnMin= -1491.02869132486     IErMin= 2 ErrMin= 1.46D-05
 ErrMax= 1.46D-05  0.00D+00 EMaxC= 1.00D-01 BMatC= 1.18D-07 BMatP= 1.19D-06
 IDIUse=1 WtCom= 1.00D+00 WtEn= 0.00D+00
 Coeff-Com:  0.803D-01 0.920D+00
 Coeff:      0.803D-01 0.920D+00
 Gap=     0.277 Goal=   None    Shift=    0.000
 RMSDP=6.35D-06 MaxDP=1.26D-04 DE=-1.62D-06 OVMax= 3.53D-04

 Cycle  11  Pass 1  IDiag  1:
 RMSU=  3.76D-06    CP:  1.00D+00  1.05D+00
 E= -1491.02869152287     Delta-E=       -0.000000198007 Rises=F Damp=F
 DIIS: error= 1.44D-05 at cycle   3 NSaved=   3.
 NSaved= 3 IEnMin= 3 EnMin= -1491.02869152287     IErMin= 3 ErrMin= 1.44D-05
 ErrMax= 1.44D-05  0.00D+00 EMaxC= 1.00D-01 BMatC= 1.08D-07 BMatP= 1.18D-07
 IDIUse=1 WtCom= 1.00D+00 WtEn= 0.00D+00
 Coeff-Com: -0.453D-01 0.495D+00 0.551D+00
 Coeff:     -0.453D-01 0.495D+00 0.551D+00
 Gap=     0.277 Goal=   None    Shift=    0.000
 RMSDP=1.89D-06 MaxDP=5.23D-05 DE=-1.98D-07 OVMax= 1.61D-04

 Cycle  12  Pass 1  IDiag  1:
 RMSU=  1.64D-06    CP:  1.00D+00  1.06D+00  1.02D+00
 E= -1491.02869167026     Delta-E=       -0.000000147387 Rises=F Damp=F
 DIIS: error= 7.26D-06 at cycle   4 NSaved=   4.
 NSaved= 4 IEnMin= 4 EnMin= -1491.02869167026     IErMin= 4 ErrMin= 7.26D-06
 ErrMax= 7.26D-06  0.00D+00 EMaxC= 1.00D-01 BMatC= 8.61D-09 BMatP= 1.08D-07
 IDIUse=1 WtCom= 1.00D+00 WtEn= 0.00D+00
 Coeff-Com: -0.187D-01-0.317D-02 0.105D+00 0.917D+00
 Coeff:     -0.187D-01-0.317D-02 0.105D+00 0.917D+00
 Gap=     0.277 Goal=   None    Shift=    0.000
 RMSDP=1.26D-06 MaxDP=3.16D-05 DE=-1.47D-07 OVMax= 1.92D-04

 Cycle  13  Pass 1  IDiag  1:
 RMSU=  7.89D-07    CP:  1.00D+00  1.06D+00  1.23D+00  1.34D+00
 E= -1491.02869171948     Delta-E=       -0.000000049220 Rises=F Damp=F
 DIIS: error= 5.04D-06 at cycle   5 NSaved=   5.
 NSaved= 5 IEnMin= 5 EnMin= -1491.02869171948     IErMin= 5 ErrMin= 5.04D-06
 ErrMax= 5.04D-06  0.00D+00 EMaxC= 1.00D-01 BMatC= 4.73D-09 BMatP= 8.61D-09
 IDIUse=1 WtCom= 1.00D+00 WtEn= 0.00D+00
 Coeff-Com:  0.129D-01-0.247D+00-0.231D+00 0.464D+00 0.100D+01
 Coeff:      0.129D-01-0.247D+00-0.231D+00 0.464D+00 0.100D+01
 Gap=     0.277 Goal=   None    Shift=    0.000
 RMSDP=1.37D-06 MaxDP=3.66D-05 DE=-4.92D-08 OVMax= 2.08D-04

 Cycle  14  Pass 1  IDiag  1:
 RMSU=  4.73D-07    CP:  1.00D+00  1.06D+00  1.46D+00  1.83D+00  1.66D+00
 E= -1491.02869174865     Delta-E=       -0.000000029169 Rises=F Damp=F
 DIIS: error= 1.53D-06 at cycle   6 NSaved=   6.
 NSaved= 6 IEnMin= 6 EnMin= -1491.02869174865     IErMin= 6 ErrMin= 1.53D-06
 ErrMax= 1.53D-06  0.00D+00 EMaxC= 1.00D-01 BMatC= 9.05D-10 BMatP= 4.73D-09
 IDIUse=1 WtCom= 1.00D+00 WtEn= 0.00D+00
 Coeff-Com:  0.104D-01-0.114D+00-0.129D+00 0.117D-01 0.462D+00 0.759D+00
 Coeff:      0.104D-01-0.114D+00-0.129D+00 0.117D-01 0.462D+00 0.759D+00
 Gap=     0.277 Goal=   None    Shift=    0.000
 RMSDP=5.14D-07 MaxDP=1.41D-05 DE=-2.92D-08 OVMax= 7.94D-05

 Cycle  15  Pass 1  IDiag  1:
 RMSU=  1.92D-07    CP:  1.00D+00  1.06D+00  1.53D+00  2.00D+00  2.02D+00
                    CP:  1.20D+00
 E= -1491.02869175268     Delta-E=       -0.000000004030 Rises=F Damp=F
 DIIS: error= 6.58D-07 at cycle   7 NSaved=   7.
 NSaved= 7 IEnMin= 7 EnMin= -1491.02869175268     IErMin= 7 ErrMin= 6.58D-07
 ErrMax= 6.58D-07  0.00D+00 EMaxC= 1.00D-01 BMatC= 9.44D-11 BMatP= 9.05D-10
 IDIUse=1 WtCom= 1.00D+00 WtEn= 0.00D+00
 Coeff-Com: -0.185D-03 0.187D-01 0.203D-01-0.765D-01-0.952D-01 0.134D+00
 Coeff-Com:  0.999D+00
 Coeff:     -0.185D-03 0.187D-01 0.203D-01-0.765D-01-0.952D-01 0.134D+00
 Coeff:      0.999D+00
 Gap=     0.277 Goal=   None    Shift=    0.000
 RMSDP=2.01D-07 MaxDP=5.65D-06 DE=-4.03D-09 OVMax= 2.97D-05

 Cycle  16  Pass 1  IDiag  1:
 RMSU=  8.04D-08    CP:  1.00D+00  1.06D+00  1.55D+00  2.03D+00  2.17D+00
                    CP:  1.39D+00  1.14D+00
 E= -1491.02869175321     Delta-E=       -0.000000000531 Rises=F Damp=F
 DIIS: error= 2.53D-07 at cycle   8 NSaved=   8.
 NSaved= 8 IEnMin= 8 EnMin= -1491.02869175321     IErMin= 8 ErrMin= 2.53D-07
 ErrMax= 2.53D-07  0.00D+00 EMaxC= 1.00D-01 BMatC= 3.53D-11 BMatP= 9.44D-11
 IDIUse=1 WtCom= 1.00D+00 WtEn= 0.00D+00
 Coeff-Com: -0.199D-02 0.301D-01 0.357D-01-0.398D-01-0.133D+00-0.803D-01
 Coeff-Com:  0.486D+00 0.703D+00
 Coeff:     -0.199D-02 0.301D-01 0.357D-01-0.398D-01-0.133D+00-0.803D-01
 Coeff:      0.486D+00 0.703D+00
 Gap=     0.277 Goal=   None    Shift=    0.000
 RMSDP=6.91D-08 MaxDP=1.72D-06 DE=-5.31D-10 OVMax= 8.63D-06

 Cycle  17  Pass 1  IDiag  1:
 RMSU=  3.45D-08    CP:  1.00D+00  1.06D+00  1.55D+00  2.04D+00  2.21D+00
                    CP:  1.44D+00  1.31D+00  1.17D+00
 E= -1491.02869175329     Delta-E=       -0.000000000088 Rises=F Damp=F
 DIIS: error= 9.29D-08 at cycle   9 NSaved=   9.
 NSaved= 9 IEnMin= 9 EnMin= -1491.02869175329     IErMin= 9 ErrMin= 9.29D-08
 ErrMax= 9.29D-08  0.00D+00 EMaxC= 1.00D-01 BMatC= 2.35D-12 BMatP= 3.53D-11
 IDIUse=1 WtCom= 1.00D+00 WtEn= 0.00D+00
 Coeff-Com: -0.173D-03-0.555D-03 0.776D-03 0.891D-02 0.423D-02-0.297D-01
 Coeff-Com: -0.117D+00-0.276D-01 0.116D+01
 Coeff:     -0.173D-03-0.555D-03 0.776D-03 0.891D-02 0.423D-02-0.297D-01
 Coeff:     -0.117D+00-0.276D-01 0.116D+01
 Gap=     0.277 Goal=   None    Shift=    0.000
 RMSDP=3.08D-08 MaxDP=6.79D-07 DE=-8.82D-11 OVMax= 3.47D-06

 Cycle  18  Pass 1  IDiag  1:
 RMSU=  1.24D-08    CP:  1.00D+00  1.06D+00  1.56D+00  2.05D+00  2.22D+00
                    CP:  1.45D+00  1.37D+00  1.37D+00  1.36D+00
 E= -1491.02869175328     Delta-E=        0.000000000019 Rises=F Damp=F
 DIIS: error= 5.09D-08 at cycle  10 NSaved=  10.
 NSaved=10 IEnMin= 9 EnMin= -1491.02869175329     IErMin=10 ErrMin= 5.09D-08
 ErrMax= 5.09D-08  0.00D+00 EMaxC= 1.00D-01 BMatC= 5.51D-13 BMatP= 2.35D-12
 IDIUse=1 WtCom= 1.00D+00 WtEn= 0.00D+00
 Coeff-Com:  0.236D-03-0.470D-02-0.501D-02 0.863D-02 0.209D-01 0.314D-02
 Coeff-Com: -0.107D+00-0.131D+00 0.367D+00 0.847D+00
 Coeff:      0.236D-03-0.470D-02-0.501D-02 0.863D-02 0.209D-01 0.314D-02
 Coeff:     -0.107D+00-0.131D+00 0.367D+00 0.847D+00
 Gap=     0.277 Goal=   None    Shift=    0.000
 RMSDP=1.06D-08 MaxDP=1.94D-07 DE= 1.86D-11 OVMax= 1.07D-06

 Cycle  19  Pass 1  IDiag  1:
 RMSU=  4.92D-09    CP:  1.00D+00  1.06D+00  1.56D+00  2.05D+00  2.22D+00
                    CP:  1.46D+00  1.39D+00  1.42D+00  1.51D+00  1.18D+00
 E= -1491.02869175330     Delta-E=       -0.000000000025 Rises=F Damp=F
 DIIS: error= 1.54D-08 at cycle  11 NSaved=  11.
 NSaved=11 IEnMin=11 EnMin= -1491.02869175330     IErMin=11 ErrMin= 1.54D-08
 ErrMax= 1.54D-08  0.00D+00 EMaxC= 1.00D-01 BMatC= 6.08D-14 BMatP= 5.51D-13
 IDIUse=1 WtCom= 1.00D+00 WtEn= 0.00D+00
 Coeff-Com:  0.797D-04-0.104D-02-0.131D-02 0.967D-03 0.423D-02 0.489D-02
 Coeff-Com: -0.101D-01-0.262D-01-0.715D-01 0.201D+00 0.899D+00
 Coeff:      0.797D-04-0.104D-02-0.131D-02 0.967D-03 0.423D-02 0.489D-02
 Coeff:     -0.101D-01-0.262D-01-0.715D-01 0.201D+00 0.899D+00
 Gap=     0.277 Goal=   None    Shift=    0.000
 RMSDP=3.16D-09 MaxDP=5.02D-08 DE=-2.50D-11 OVMax= 2.88D-07

 SCF Done:  E(RwB97XD) =  -1491.02869175     A.U. after   19 cycles
            NFock= 19  Conv=0.32D-08     -V/T= 2.0053
 KE= 1.483193526353D+03 PE=-5.901202338008D+03 EE= 1.731876456364D+03
 Leave Link  502 at Fri Mar  6 16:25:42 2026, MaxMem=  2415919104 cpu:             206.2 elap:              20.5
 (Enter /prod/precompiled/gaussian/16c2/g16/l508.exe)
 QCSCF skips out because SCF is already converged.
 Leave Link  508 at Fri Mar  6 16:25:42 2026, MaxMem=  2415919104 cpu:               0.1 elap:               0.1
 (Enter /prod/precompiled/gaussian/16c2/g16/l801.exe)
 DoSCS=F DFT=T ScalE2(SS,OS)=  1.000000  1.000000
 Range of M.O.s used for correlation:     1   272
 NBasis=   272 NAE=    64 NBE=    64 NFC=     0 NFV=     0
 NROrb=    272 NOA=    64 NOB=    64 NVA=   208 NVB=   208

 **** Warning!!: The largest alpha MO coefficient is  0.17707262D+02

 Leave Link  801 at Fri Mar  6 16:25:42 2026, MaxMem=  2415919104 cpu:               0.1 elap:               0.1
 (Enter /prod/precompiled/gaussian/16c2/g16/l1101.exe)
 Using compressed storage, NAtomX=    24.
 Will process     25 centers per pass.
   1 Symmetry operations used in ECPInt.
 ECPInt:  NShTT=    7750 NPrTT=   30142 LenC2=    6985 LenP2D=   18897.
 LDataN:  DoStor=T MaxTD1= 5 Len=  102
 R6Disp: Adding Grimme-D2 dispersion energy 1st derivatives to the gradient.
 Leave Link 1101 at Fri Mar  6 16:25:43 2026, MaxMem=  2415919104 cpu:               2.1 elap:               0.6
 (Enter /prod/precompiled/gaussian/16c2/g16/l1102.exe)
 Symmetrizing basis deriv contribution to polar:
 IMax=3 JMax=2 DiffMx= 0.00D+00
 Leave Link 1102 at Fri Mar  6 16:25:43 2026, MaxMem=  2415919104 cpu:               0.3 elap:               0.1
 (Enter /prod/precompiled/gaussian/16c2/g16/l1110.exe)
 Forming Gx(P) for the SCF density, NAtomX=    24.
 Integral derivatives from FoFJK, PRISM(SPDF).
 Do as many integral derivatives as possible in FoFJK.
 G2DrvN: MDV=    2415916544.
 G2DrvN: will do    25 centers at a time, making    1 passes.
 Calling FoFCou, ICntrl=  3107 FMM=F I1Cent=   0 AccDes= 0.00D+00.
 FoFJK:  IHMeth= 1 ICntrl=    3107 DoSepK=T KAlg= 0 I1Cent=           0 FoldK=F
 IRaf=         1 NMat=       1 IRICut=       1 DoRegI=T DoRafI=F ISym2E= 0 IDoP0=0 IntGTp=1.
 FoFCou: FMM=F IPFlag=           0 FMFlag=      100000 FMFlg1=           0
         NFxFlg=           0 DoJE=F BraDBF=F KetDBF=F FulRan=T
         wScrn=  0.000000 ICntrl=      3507 IOpCl=  0 I1Cent=           0 NGrid=           0
         NMat0=    1 NMatS0=      1 NMatT0=    0 NMatD0=    1 NMtDS0=    0 NMtDT0=    0
 Symmetry not used in FoFCou.
 End of G2Drv F.D. properties file   721 does not exist.
 End of G2Drv F.D. properties file   722 does not exist.
 End of G2Drv F.D. properties file   788 does not exist.
 Leave Link 1110 at Fri Mar  6 16:26:04 2026, MaxMem=  2415919104 cpu:             230.2 elap:              21.6
 (Enter /prod/precompiled/gaussian/16c2/g16/l1002.exe)
 Minotr:  Closed shell wavefunction.
          IDoAtm=111111111111111111111111
          Direct CPHF calculation.
          Differentiating once with respect to electric field.
                with respect to dipole field.
          Differentiating once with respect to nuclear coordinates.
          Requested convergence is 1.0D-08 RMS, and 1.0D-07 maximum.
          Secondary convergence is 1.0D-12 RMS, and 1.0D-12 maximum.
          NewPWx=T KeepS1=F KeepF1=F KeepIn=T MapXYZ=F SortEE=F KeepMc=T.
         7209 words used for storage of precomputed grid.
 Keep R1 ints in memory in canonical form, NReq=1402150899.
 FoFCou: FMM=F IPFlag=           0 FMFlag=           0 FMFlg1=           0
         NFxFlg=           0 DoJE=F BraDBF=F KetDBF=F FulRan=T
         wScrn=  0.000000 ICntrl=       600 IOpCl=  0 I1Cent=           0 NGrid=           0
         NMat0=    1 NMatS0=  37128 NMatT0=    0 NMatD0=    1 NMtDS0=    0 NMtDT0=    0
 Symmetry not used in FoFCou.
 Two-electron integral symmetry not used.
          MDV=    2415919104 using IRadAn=       1.
          Solving linear equations simultaneously, MaxMat=       0.
          There are    75 degrees of freedom in the 1st order CPHF.  IDoFFX=6 NUNeed=     3.
     72 vectors produced by pass  0 Test12= 1.77D-14 1.33D-09 XBig12= 1.16D+02 5.19D+00.
 AX will form    72 AO Fock derivatives at one time.
     72 vectors produced by pass  1 Test12= 1.77D-14 1.33D-09 XBig12= 1.22D+01 6.63D-01.
     72 vectors produced by pass  2 Test12= 1.77D-14 1.33D-09 XBig12= 6.93D-01 1.59D-01.
     72 vectors produced by pass  3 Test12= 1.77D-14 1.33D-09 XBig12= 1.41D-02 1.57D-02.
     72 vectors produced by pass  4 Test12= 1.77D-14 1.33D-09 XBig12= 1.73D-04 1.38D-03.
     72 vectors produced by pass  5 Test12= 1.77D-14 1.33D-09 XBig12= 1.12D-06 7.44D-05.
     68 vectors produced by pass  6 Test12= 1.77D-14 1.33D-09 XBig12= 6.06D-09 6.07D-06.
     35 vectors produced by pass  7 Test12= 1.77D-14 1.33D-09 XBig12= 2.83D-11 4.80D-07.
      3 vectors produced by pass  8 Test12= 1.77D-14 1.33D-09 XBig12= 1.36D-13 3.42D-08.
      2 vectors produced by pass  9 Test12= 1.77D-14 1.33D-09 XBig12= 6.20D-16 2.39D-09.
 InvSVY:  IOpt=1 It=  1 EMax= 1.07D-14
 Solved reduced A of dimension   540 with    75 vectors.
 FullF1:  Do perturbations      1 to       3.
 Isotropic polarizability for W=    0.000000      168.38 Bohr**3.
 End of Minotr F.D. properties file   721 does not exist.
 End of Minotr F.D. properties file   722 does not exist.
 End of Minotr F.D. properties file   788 does not exist.
 Leave Link 1002 at Fri Mar  6 16:26:42 2026, MaxMem=  2415919104 cpu:             321.5 elap:              37.8
 (Enter /prod/precompiled/gaussian/16c2/g16/l601.exe)
 Copying SCF densities to generalized density rwf, IOpCl= 0 IROHF=0.

 **********************************************************************

            Population analysis using the SCF Density.

 **********************************************************************

 Alpha  occ. eigenvalues -- -101.67710-101.67670 -14.50865 -14.49944 -10.37582
 Alpha  occ. eigenvalues --  -10.36862 -10.35277 -10.34922 -10.32516 -10.32352
 Alpha  occ. eigenvalues --  -10.32257 -10.31930 -10.31920 -10.31896 -10.31646
 Alpha  occ. eigenvalues --  -10.31529  -9.58513  -9.58445  -7.33911  -7.33853
 Alpha  occ. eigenvalues --   -7.32922  -7.32883  -7.32878  -7.32769  -1.14987
 Alpha  occ. eigenvalues --   -1.00262  -0.98946  -0.94336  -0.93822  -0.90693
 Alpha  occ. eigenvalues --   -0.85529  -0.83502  -0.82968  -0.78009  -0.71532
 Alpha  occ. eigenvalues --   -0.71047  -0.71002  -0.66668  -0.62777  -0.60319
 Alpha  occ. eigenvalues --   -0.58864  -0.58314  -0.56668  -0.54396  -0.54237
 Alpha  occ. eigenvalues --   -0.52896  -0.52085  -0.51961  -0.51128  -0.48700
 Alpha  occ. eigenvalues --   -0.47145  -0.46761  -0.46335  -0.44922  -0.44417
 Alpha  occ. eigenvalues --   -0.42361  -0.42182  -0.40198  -0.38929  -0.36214
 Alpha  occ. eigenvalues --   -0.33761  -0.32885  -0.32437  -0.30077
 Alpha virt. eigenvalues --   -0.02348   0.04090   0.04499   0.05540   0.09132
 Alpha virt. eigenvalues --    0.11337   0.12090   0.16049   0.16465   0.18152
 Alpha virt. eigenvalues --    0.18507   0.21587   0.21733   0.21943   0.22316
 Alpha virt. eigenvalues --    0.22767   0.23051   0.28105   0.29896   0.33879
 Alpha virt. eigenvalues --    0.34588   0.34771   0.35127   0.35731   0.36034
 Alpha virt. eigenvalues --    0.37136   0.38674   0.40947   0.42976   0.45734
 Alpha virt. eigenvalues --    0.46551   0.46868   0.48176   0.48688   0.50975
 Alpha virt. eigenvalues --    0.51455   0.52441   0.53685   0.53802   0.53883
 Alpha virt. eigenvalues --    0.54541   0.54770   0.56427   0.56733   0.59664
 Alpha virt. eigenvalues --    0.60297   0.60625   0.61072   0.61329   0.61689
 Alpha virt. eigenvalues --    0.62683   0.64551   0.66326   0.66746   0.67715
 Alpha virt. eigenvalues --    0.68368   0.68951   0.69618   0.70844   0.71880
 Alpha virt. eigenvalues --    0.73452   0.73995   0.74219   0.74924   0.75389
 Alpha virt. eigenvalues --    0.75770   0.78039   0.78363   0.78884   0.79331
 Alpha virt. eigenvalues --    0.79349   0.80029   0.81345   0.82061   0.82327
 Alpha virt. eigenvalues --    0.84115   0.85825   0.86539   0.86882   0.87707
 Alpha virt. eigenvalues --    0.88199   0.89515   0.90459   0.90956   0.91577
 Alpha virt. eigenvalues --    0.92614   0.93407   0.94110   0.96819   0.99247
 Alpha virt. eigenvalues --    1.01254   1.02451   1.03565   1.04897   1.06818
 Alpha virt. eigenvalues --    1.07333   1.11837   1.14207   1.17092   1.17614
 Alpha virt. eigenvalues --    1.19578   1.20184   1.25935   1.27266   1.28753
 Alpha virt. eigenvalues --    1.29752   1.31025   1.32517   1.33096   1.33744
 Alpha virt. eigenvalues --    1.34399   1.34533   1.35766   1.37034   1.37063
 Alpha virt. eigenvalues --    1.38477   1.40278   1.43344   1.47753   1.50582
 Alpha virt. eigenvalues --    1.54651   1.56904   1.58390   1.58934   1.61810
 Alpha virt. eigenvalues --    1.68421   1.73335   1.74127   1.77441   1.77843
 Alpha virt. eigenvalues --    1.78283   1.78836   1.80018   1.80761   1.83473
 Alpha virt. eigenvalues --    1.83578   1.84051   1.84722   1.85019   1.85841
 Alpha virt. eigenvalues --    1.86914   1.89113   1.90593   1.91371   1.93649
 Alpha virt. eigenvalues --    1.97939   1.98047   2.00351   2.01459   2.02139
 Alpha virt. eigenvalues --    2.02643   2.03226   2.03866   2.08014   2.09420
 Alpha virt. eigenvalues --    2.12314   2.13736   2.17314   2.18414   2.20334
 Alpha virt. eigenvalues --    2.21644   2.21991   2.23490   2.25862   2.30401
 Alpha virt. eigenvalues --    2.31900   2.32343   2.33793   2.34847   2.34999
 Alpha virt. eigenvalues --    2.35565   2.37923   2.38658   2.39107   2.44474
 Alpha virt. eigenvalues --    2.46645   2.49003   2.54087   2.57573   2.59497
 Alpha virt. eigenvalues --    2.63435   2.66806   2.67490   2.69019   2.69151
 Alpha virt. eigenvalues --    2.69961   2.72386   2.74239   2.80434   2.80953
 Alpha virt. eigenvalues --    2.86574   2.87396   2.89239   2.89910   2.93121
 Alpha virt. eigenvalues --    2.95309   2.98370   3.00940   3.07087   3.11974
 Alpha virt. eigenvalues --    3.14563   3.16045   3.22192   3.25740   3.45686
 Alpha virt. eigenvalues --    3.50342   3.65968   3.68906
          Condensed to atoms (all electrons):
               1          2          3          4          5          6
     1  C    5.127591   0.198840  -0.046892   0.080736  -0.134740   0.087695
     2  C    0.198840   5.317324   0.259521   0.342382   0.085182  -0.144673
     3  Cl  -0.046892   0.259521  16.906953  -0.063935   0.003500   0.000691
     4  C    0.080736   0.342382  -0.063935   4.975924   0.310961   0.070003
     5  C   -0.134740   0.085182   0.003500   0.310961   5.046737   0.274452
     6  C    0.087695  -0.144673   0.000691   0.070003   0.274452   5.090605
     7  C    0.355401   0.031119   0.001326  -0.102221   0.074503   0.300811
     8  N    0.377154  -0.060793  -0.001877   0.003644  -0.000421   0.006798
     9  N   -0.067105  -0.029940  -0.013877  -0.000610   0.000070  -0.000267
    10  C    0.008900   0.001021   0.000178   0.000024  -0.000001   0.000006
    11  C    0.000389   0.000022  -0.000053  -0.000002   0.000000  -0.000001
    12  Cl   0.002356  -0.000084   0.000001  -0.000003   0.000000  -0.000008
    13  C    0.000032  -0.000003  -0.000001   0.000000   0.000000  -0.000000
    14  C   -0.000001   0.000000   0.000000   0.000000  -0.000000   0.000000
    15  C    0.000009  -0.000001   0.000003   0.000000   0.000000  -0.000000
    16  C   -0.000151  -0.000017   0.000432   0.000000  -0.000000   0.000000
    17  H    0.014989  -0.064540   0.003905   0.438152  -0.055048   0.013433
    18  H   -0.001685   0.013580  -0.000145  -0.059953   0.445612  -0.064419
    19  H    0.013117  -0.001817   0.000007   0.013001  -0.066304   0.448959
    20  H   -0.061109   0.019876  -0.000054  -0.003118   0.013792  -0.068195
    21  H   -0.000002   0.000000  -0.000000   0.000000  -0.000000   0.000000
    22  H    0.000000   0.000000  -0.000000  -0.000000   0.000000  -0.000000
    23  H   -0.000000  -0.000000  -0.000000  -0.000000  -0.000000   0.000000
    24  H   -0.000194  -0.000019   0.001164  -0.000001  -0.000000   0.000000
               7          8          9         10         11         12
     1  C    0.355401   0.377154  -0.067105   0.008900   0.000389   0.002356
     2  C    0.031119  -0.060793  -0.029940   0.001021   0.000022  -0.000084
     3  Cl   0.001326  -0.001877  -0.013877   0.000178  -0.000053   0.000001
     4  C   -0.102221   0.003644  -0.000610   0.000024  -0.000002  -0.000003
     5  C    0.074503  -0.000421   0.000070  -0.000001   0.000000   0.000000
     6  C    0.300811   0.006798  -0.000267   0.000006  -0.000001  -0.000008
     7  C    5.032936  -0.076830   0.009608  -0.000699   0.000031  -0.000076
     8  N   -0.076830   6.610341   0.302362  -0.069048  -0.006481   0.000136
     9  N    0.009608   0.302362   6.687711   0.347263  -0.059930  -0.002544
    10  C   -0.000699  -0.069048   0.347263   5.081622   0.254665  -0.059360
    11  C    0.000031  -0.006481  -0.059930   0.254665   5.228115   0.257146
    12  Cl  -0.000076   0.000136  -0.002544  -0.059360   0.257146  16.928680
    13  C   -0.000000  -0.000781   0.004781   0.075957   0.340803  -0.058497
    14  C   -0.000000   0.000074  -0.000288  -0.135119   0.083184   0.002981
    15  C    0.000000  -0.000331   0.006387   0.092544  -0.147207   0.000704
    16  C    0.000003   0.002168  -0.070560   0.350422   0.059055   0.001104
    17  H   -0.002146  -0.000072   0.000064  -0.000000   0.000000   0.000000
    18  H    0.012163   0.000006  -0.000000   0.000000  -0.000000   0.000000
    19  H   -0.061188  -0.000088   0.000004  -0.000000   0.000000  -0.000000
    20  H    0.441973  -0.000079   0.000087  -0.000124   0.000044   0.000448
    21  H    0.000000   0.000010  -0.000074   0.015741  -0.064693   0.001815
    22  H   -0.000000   0.000000   0.000007  -0.001727   0.013703  -0.000124
    23  H    0.000000   0.000003  -0.000090   0.013416  -0.001689   0.000007
    24  H    0.000002   0.000416  -0.004127  -0.066004   0.018306  -0.000066
              13         14         15         16         17         18
     1  C    0.000032  -0.000001   0.000009  -0.000151   0.014989  -0.001685
     2  C   -0.000003   0.000000  -0.000001  -0.000017  -0.064540   0.013580
     3  Cl  -0.000001   0.000000   0.000003   0.000432   0.003905  -0.000145
     4  C    0.000000   0.000000   0.000000   0.000000   0.438152  -0.059953
     5  C    0.000000  -0.000000   0.000000  -0.000000  -0.055048   0.445612
     6  C   -0.000000   0.000000  -0.000000   0.000000   0.013433  -0.064419
     7  C   -0.000000  -0.000000   0.000000   0.000003  -0.002146   0.012163
     8  N   -0.000781   0.000074  -0.000331   0.002168  -0.000072   0.000006
     9  N    0.004781  -0.000288   0.006387  -0.070560   0.000064  -0.000000
    10  C    0.075957  -0.135119   0.092544   0.350422  -0.000000   0.000000
    11  C    0.340803   0.083184  -0.147207   0.059055   0.000000  -0.000000
    12  Cl  -0.058497   0.002981   0.000704   0.001104   0.000000   0.000000
    13  C    4.973671   0.319680   0.072692  -0.106926  -0.000000  -0.000000
    14  C    0.319680   5.045770   0.284437   0.070257   0.000000   0.000000
    15  C    0.072692   0.284437   5.064868   0.310622  -0.000000   0.000000
    16  C   -0.106926   0.070257   0.310622   5.012982  -0.000000   0.000000
    17  H   -0.000000   0.000000  -0.000000  -0.000000   0.637916  -0.011806
    18  H   -0.000000   0.000000   0.000000   0.000000  -0.011806   0.644812
    19  H    0.000000  -0.000000   0.000000   0.000000  -0.000228  -0.010854
    20  H   -0.000002  -0.000000  -0.000000  -0.000001   0.000021  -0.000209
    21  H    0.440378  -0.057446   0.013031  -0.001979   0.000000  -0.000000
    22  H   -0.060687   0.445973  -0.065047   0.012457   0.000000   0.000000
    23  H    0.012710  -0.066004   0.448245  -0.061696   0.000000  -0.000000
    24  H   -0.002757   0.013784  -0.065678   0.446856   0.000000   0.000000
              19         20         21         22         23         24
     1  C    0.013117  -0.061109  -0.000002   0.000000  -0.000000  -0.000194
     2  C   -0.001817   0.019876   0.000000   0.000000  -0.000000  -0.000019
     3  Cl   0.000007  -0.000054  -0.000000  -0.000000  -0.000000   0.001164
     4  C    0.013001  -0.003118   0.000000  -0.000000  -0.000000  -0.000001
     5  C   -0.066304   0.013792  -0.000000   0.000000  -0.000000  -0.000000
     6  C    0.448959  -0.068195   0.000000  -0.000000   0.000000   0.000000
     7  C   -0.061188   0.441973   0.000000  -0.000000   0.000000   0.000002
     8  N   -0.000088  -0.000079   0.000010   0.000000   0.000003   0.000416
     9  N    0.000004   0.000087  -0.000074   0.000007  -0.000090  -0.004127
    10  C   -0.000000  -0.000124   0.015741  -0.001727   0.013416  -0.066004
    11  C    0.000000   0.000044  -0.064693   0.013703  -0.001689   0.018306
    12  Cl  -0.000000   0.000448   0.001815  -0.000124   0.000007  -0.000066
    13  C    0.000000  -0.000002   0.440378  -0.060687   0.012710  -0.002757
    14  C   -0.000000  -0.000000  -0.057446   0.445973  -0.066004   0.013784
    15  C    0.000000  -0.000000   0.013031  -0.065047   0.448245  -0.065678
    16  C    0.000000  -0.000001  -0.001979   0.012457  -0.061696   0.446856
    17  H   -0.000228   0.000021   0.000000   0.000000   0.000000   0.000000
    18  H   -0.010854  -0.000209  -0.000000   0.000000  -0.000000   0.000000
    19  H    0.646081  -0.011170   0.000000  -0.000000   0.000000  -0.000000
    20  H   -0.011170   0.638002   0.000000   0.000000   0.000000   0.000001
    21  H    0.000000   0.000000   0.642495  -0.011748  -0.000217   0.000017
    22  H   -0.000000   0.000000  -0.011748   0.648635  -0.011017  -0.000216
    23  H    0.000000   0.000000  -0.000217  -0.011017   0.648981  -0.011282
    24  H   -0.000000   0.000001   0.000017  -0.000216  -0.011282   0.646835
 Mulliken charges:
               1
     1  C    0.044671
     2  C    0.033022
     3  Cl  -0.050845
     4  C   -0.004984
     5  C    0.001705
     6  C   -0.015889
     7  C   -0.016716
     8  N   -0.086313
     9  N   -0.108929
    10  C    0.090323
    11  C    0.024593
    12  Cl  -0.074619
    13  C   -0.011050
    14  C   -0.007282
    15  C   -0.015276
    16  C   -0.025028
    17  H    0.025360
    18  H    0.032897
    19  H    0.030482
    20  H    0.029816
    21  H    0.022671
    22  H    0.029791
    23  H    0.028635
    24  H    0.022963
 Sum of Mulliken charges =  -0.00000
 Mulliken charges with hydrogens summed into heavy atoms:
               1
     1  C    0.044671
     2  C    0.033022
     3  Cl  -0.050845
     4  C    0.020376
     5  C    0.034602
     6  C    0.014593
     7  C    0.013101
     8  N   -0.086313
     9  N   -0.108929
    10  C    0.090323
    11  C    0.024593
    12  Cl  -0.074619
    13  C    0.011621
    14  C    0.022509
    15  C    0.013360
    16  C   -0.002064
 APT charges:
               1
     1  C   -0.105652
     2  C    0.323198
     3  Cl  -0.257056
     4  C   -0.163385
     5  C    0.034951
     6  C   -0.103504
     7  C   -0.003944
     8  N    0.183475
     9  N   -0.218945
    10  C    0.135207
    11  C    0.275596
    12  Cl  -0.254726
    13  C   -0.107960
    14  C   -0.037623
    15  C   -0.052982
    16  C   -0.062872
    17  H    0.060217
    18  H    0.043890
    19  H    0.040013
    20  H    0.071467
    21  H    0.057070
    22  H    0.039410
    23  H    0.036452
    24  H    0.067703
 Sum of APT charges =  -0.00000
 APT charges with hydrogens summed into heavy atoms:
               1
     1  C   -0.105652
     2  C    0.323198
     3  Cl  -0.257056
     4  C   -0.103168
     5  C    0.078841
     6  C   -0.063491
     7  C    0.067523
     8  N    0.183475
     9  N   -0.218945
    10  C    0.135207
    11  C    0.275596
    12  Cl  -0.254726
    13  C   -0.050890
    14  C    0.001787
    15  C   -0.016530
    16  C    0.004831
 Electronic spatial extent (au):  <R**2>=           6539.7441
 Charge=              0.0000 electrons
 Dipole moment (field-independent basis, Debye):
    X=              0.4933    Y=             -0.2572    Z=              0.7933  Tot=              0.9689
 Quadrupole moment (field-independent basis, Debye-Ang):
   XX=            -91.8585   YY=            -91.5757   ZZ=           -106.9599
   XY=            -12.0437   XZ=             -3.8457   YZ=              0.3733
 Traceless Quadrupole moment (field-independent basis, Debye-Ang):
   XX=              4.9395   YY=              5.2223   ZZ=            -10.1619
   XY=            -12.0437   XZ=             -3.8457   YZ=              0.3733
 Octapole moment (field-independent basis, Debye-Ang**2):
  XXX=            387.0962  YYY=           -328.9095  ZZZ=             99.4338  XYY=             90.9578
  XXY=            -75.5154  XXZ=             52.0142  XZZ=            135.4238  YZZ=           -119.4963
  YYZ=             21.8050  XYZ=             -4.6874
 Hexadecapole moment (field-independent basis, Debye-Ang**3):
 XXXX=          -3222.1709 YYYY=          -4378.8003 ZZZZ=           -582.3831 XXXY=           1191.3239
 XXXZ=           -185.0721 YYYX=           1083.5238 YYYZ=            264.6358 ZZZX=            -87.2663
 ZZZY=            358.3885 XXYY=          -1100.2265 XXZZ=           -673.7740 YYZZ=           -915.5421
 XXYZ=            161.7502 YYXZ=             -7.0069 ZZXY=            484.5042
 N-N= 1.195103663538D+03 E-N=-5.901202339391D+03  KE= 1.483193526353D+03
  Exact polarizability:     201.680     -58.744     208.119     -21.056     -14.784      95.329
 Approx polarizability:     228.417     -34.017     208.289     -26.500     -14.253     121.350
 No NMR shielding tensors so no spin-rotation constants.
 Leave Link  601 at Fri Mar  6 16:26:43 2026, MaxMem=  2415919104 cpu:               1.0 elap:               0.5
 (Enter /prod/precompiled/gaussian/16c2/g16/l701.exe)
 ... and contract with generalized density number  0.
 Compute integral second derivatives.
 R6Disp: Adding Grimme-D2 dispersion energy 2nd derivatives to the Hessian.
   1 Symmetry operations used in ECPInt.
 ECPInt:  NShTT=    7750 NPrTT=   30142 LenC2=    6985 LenP2D=   18897.
 LDataN:  DoStor=T MaxTD1= 6 Len=  172
 Leave Link  701 at Fri Mar  6 16:26:43 2026, MaxMem=  2415919104 cpu:               1.4 elap:               0.3
 (Enter /prod/precompiled/gaussian/16c2/g16/l702.exe)
 L702 exits ... SP integral derivatives will be done elsewhere.
 Leave Link  702 at Fri Mar  6 16:26:43 2026, MaxMem=  2415919104 cpu:               0.1 elap:               0.1
 (Enter /prod/precompiled/gaussian/16c2/g16/l703.exe)
 Integral derivatives from FoFJK, PRISM(SPDF).
 Compute integral second derivatives, UseDBF=F ICtDFT=           0.
 Calling FoFJK, ICntrl=    100127 FMM=F ISym2X=0 I1Cent= 0 IOpClX= 0 NMat=1 NMatS=1 NMatT=0.
 FoFJK:  IHMeth= 1 ICntrl=  100127 DoSepK=T KAlg= 0 I1Cent=           0 FoldK=F
 IRaf=         1 NMat=       1 IRICut=       1 DoRegI=T DoRafI=F ISym2E= 0 IDoP0=0 IntGTp=1.
 FoFCou: FMM=F IPFlag=           0 FMFlag=      100000 FMFlg1=         800
         NFxFlg=           0 DoJE=F BraDBF=F KetDBF=F FulRan=T
         wScrn=  0.000000 ICntrl=    100527 IOpCl=  0 I1Cent=           0 NGrid=           0
         NMat0=    1 NMatS0=      1 NMatT0=    0 NMatD0=    1 NMtDS0=    0 NMtDT0=    0
 Symmetry not used in FoFCou.
 Leave Link  703 at Fri Mar  6 16:27:24 2026, MaxMem=  2415919104 cpu:             433.3 elap:              40.9
 (Enter /prod/precompiled/gaussian/16c2/g16/l716.exe)
 Dipole        = 1.94081706D-01-1.01170992D-01 3.12116219D-01
 Polarizability= 2.01680056D+02-5.87437893D+01 2.08118739D+02
                -2.10562270D+01-1.47839685D+01 9.53285286D+01
 -------------------------------------------------------------------
 Center     Atomic                   Forces (Hartrees/Bohr)
 Number     Number              X              Y              Z
 -------------------------------------------------------------------
      1        6           0.009343363   -0.003154756    0.002190809
      2        6          -0.000078073   -0.010321760   -0.000271372
      3       17          -0.001421042   -0.001202355    0.000474861
      4        6           0.002790556    0.007175081    0.000565413
      5        6          -0.005525045    0.002794989   -0.000197482
      6        6          -0.005980174    0.012188967   -0.000518725
      7        6           0.002109630   -0.009309938    0.001306308
      8        7          -0.003079613   -0.013389816   -0.006065697
      9        7           0.008341918    0.011067414    0.001835747
     10        6          -0.011253608    0.004153704    0.003974716
     11        6          -0.003191484    0.010010719    0.000303361
     12       17           0.004384024   -0.002827892   -0.002127132
     13        6          -0.003829367   -0.005813281    0.005325055
     14        6           0.005089924   -0.001720993   -0.002930691
     15        6           0.008034409   -0.009646329    0.001066437
     16        6          -0.004777702    0.008329137   -0.004316071
     17        1          -0.004259300   -0.000133065    0.000102231
     18        1           0.001175286   -0.002509532   -0.000183959
     19        1           0.002079791    0.002270921   -0.000315943
     20        1          -0.003944106    0.004133071    0.000697774
     21        1           0.003317749    0.000566275   -0.002824888
     22        1          -0.000728436    0.002128699   -0.000771447
     23        1          -0.001314237   -0.000897621    0.002174431
     24        1           0.002715536   -0.003891638    0.000506264
 -------------------------------------------------------------------
 Cartesian Forces:  Max     0.013389816 RMS     0.005025120
 Leave Link  716 at Fri Mar  6 16:27:24 2026, MaxMem=  2415919104 cpu:               0.1 elap:               0.1
 (Enter /prod/precompiled/gaussian/16c2/g16/l103.exe)

 GradGradGradGradGradGradGradGradGradGradGradGradGradGradGradGradGradGrad
 Berny optimization.
 Step   1 in ReCalcFC=30 IGetFC= 4 recover analytic Hessian.
 Search for a local minimum.
 Step number   1 out of a maximum of   82
 All quantities printed in internal units (Hartrees-Bohrs-Radians)
 Second derivative matrix not updated -- analytic derivatives used.
 ITU=  0
     Eigenvalues ---   -0.00061   0.00105   0.00120   0.00195   0.00639
     Eigenvalues ---    0.00999   0.01204   0.01399   0.01937   0.02177
     Eigenvalues ---    0.02460   0.02574   0.02998   0.04529   0.04591
     Eigenvalues ---    0.05017   0.05152   0.05176   0.05364   0.05429
     Eigenvalues ---    0.06094   0.06577   0.07834   0.08249   0.08541
     Eigenvalues ---    0.09785   0.10199   0.10306   0.10606   0.11417
     Eigenvalues ---    0.13160   0.17071   0.17667   0.19165   0.19701
     Eigenvalues ---    0.20339   0.20838   0.21426   0.23838   0.25201
     Eigenvalues ---    0.28834   0.30804   0.31723   0.40133   0.42252
     Eigenvalues ---    0.43883   0.50941   0.58856   0.60006   0.65580
     Eigenvalues ---    0.68562   0.78989   0.80107   0.86958   0.87962
     Eigenvalues ---    0.89662   0.95650   1.10934   1.11405   1.13788
     Eigenvalues ---    1.14082   1.28190   1.28693   1.32903   1.33282
     Eigenvalues ---    1.48771
 Eigenvalue     1 is  -6.12D-04 should be greater than     0.000000 Eigenvector:
                          Z3        Z24       Z19       Z9        Y12
   1                    0.41408  -0.29500  -0.27499  -0.21722   0.21571
                          Z17       Z20       Z21       Z16       Y23
   1                    0.20953  -0.20668   0.19633  -0.18870  -0.18793
 RFO step:  Lambda=-6.17212013D-03 EMin=-6.12222706D-04
 Linear search not attempted -- first point.
 Maximum step size (   0.300) exceeded in Quadratic search.
    -- Step size scaled by   0.358
 B after Tr=     0.001176   -0.000782    0.009014
         Rot=    1.000000    0.000472   -0.000215    0.000322 Ang=   0.07 deg.
 Variable       Old X    -DE/DX   Delta X   Delta X   Delta X     New X
                                 (Linear)    (Quad)   (Total)
    X1        0.00000   0.00934   0.00000  -0.01686  -0.01571  -0.01571
    Y1        0.00000  -0.00315   0.00000  -0.02636  -0.02714  -0.02714
    Z1        0.00000   0.00219   0.00000  -0.00994  -0.00089  -0.00089
    X2       -1.18026  -0.00008   0.00000  -0.01248  -0.01287  -1.19313
    Y2       -2.39798  -0.01032   0.00000  -0.02851  -0.02853  -2.42650
    Z2       -0.04329  -0.00027   0.00000   0.03680   0.04862   0.00533
    X3       -4.42476  -0.00142   0.00000  -0.01183  -0.01250  -4.43726
    Y3       -2.88635  -0.00120   0.00000  -0.02921  -0.02705  -2.91341
    Z3       -0.03632   0.00047   0.00000   0.11067   0.12434   0.08802
    X4        0.26139   0.00279   0.00000   0.00310   0.00127   0.26266
    Y4       -4.62957   0.00718   0.00000  -0.00997  -0.01096  -4.64053
    Z4       -0.07563   0.00057   0.00000   0.03271   0.04599  -0.02964
    X5        2.88838  -0.00553   0.00000   0.00217   0.00040   2.88878
    Y5       -4.54255   0.00279   0.00000   0.01360   0.01089  -4.53166
    Z5       -0.05406  -0.00020   0.00000  -0.01466  -0.00261  -0.05667
    X6        4.09823  -0.00598   0.00000  -0.00840  -0.00867   4.08957
    Y6       -2.21567   0.01219   0.00000   0.02362   0.02013  -2.19553
    Z6       -0.02976  -0.00052   0.00000  -0.04493  -0.03560  -0.06536
    X7        2.66988   0.00211   0.00000  -0.02306  -0.02189   2.64799
    Y7        0.01887  -0.00931   0.00000   0.00221  -0.00033   0.01854
    Z7       -0.01697   0.00131   0.00000  -0.03564  -0.02778  -0.04475
    X8       -1.18162  -0.00308   0.00000  -0.01004  -0.00730  -1.18892
    Y8        2.42376  -0.01339   0.00000  -0.02748  -0.02745   2.39631
    Z8        0.09004  -0.00607   0.00000  -0.04283  -0.03556   0.05448
    X9       -3.52299   0.00834   0.00000  -0.00766  -0.00503  -3.52802
    Y9        2.34902   0.01107   0.00000   0.00603   0.00738   2.35640
    Z9       -0.11979   0.00184   0.00000  -0.03348  -0.02517  -0.14496
   X10       -4.72356  -0.01125   0.00000  -0.00429  -0.00016  -4.72371
   Y10        4.72977   0.00415   0.00000   0.00839   0.01044   4.74022
   Z10       -0.19911   0.00397   0.00000  -0.03112  -0.02455  -0.22366
   X11       -4.12212  -0.00319   0.00000   0.02446   0.02914  -4.09298
   Y11        6.67140   0.01001   0.00000   0.03498   0.03504   6.70645
   Z11       -1.90642   0.00030   0.00000   0.00895   0.01339  -1.89303
   X12       -1.67775   0.00438   0.00000   0.06217   0.06579  -1.61196
   Y12        6.41891  -0.00283   0.00000   0.05273   0.04919   6.46810
   Z12       -4.06561  -0.00213   0.00000   0.04150   0.04510  -4.02051
   X13       -5.56638  -0.00383   0.00000   0.01833   0.02440  -5.54198
   Y13        8.89466  -0.00581   0.00000   0.02519   0.02612   8.92078
   Z13       -1.99091   0.00533   0.00000   0.02158   0.02456  -1.96635
   X14       -7.64000   0.00509   0.00000   0.00422   0.01116  -7.62884
   Y14        9.20385  -0.00172   0.00000  -0.00344   0.00033   9.20418
   Z14       -0.39472  -0.00293   0.00000   0.00529   0.00889  -0.38583
   X15       -8.29399   0.00803   0.00000  -0.01239  -0.00599  -8.29999
   Y15        7.28651  -0.00965   0.00000  -0.03061  -0.02487   7.26164
   Z15        1.27572   0.00107   0.00000  -0.02681  -0.02108   1.25464
   X16       -6.85469  -0.00478   0.00000  -0.02051  -0.01552  -6.87021
   Y16        5.06536   0.00833   0.00000  -0.02628  -0.02140   5.04395
   Z16        1.35941  -0.00432   0.00000  -0.05348  -0.04627   1.31314
   X17       -0.68023  -0.00426   0.00000   0.00038  -0.00262  -0.68285
   Y17       -6.45612  -0.00013   0.00000  -0.01143  -0.01181  -6.46793
   Z17       -0.10657   0.00010   0.00000   0.06620   0.08161  -0.02495
   X18        3.97286   0.00118   0.00000   0.01320   0.01030   3.98316
   Y18       -6.28868  -0.00251   0.00000   0.01712   0.01370  -6.27498
   Z18       -0.05668  -0.00018   0.00000  -0.02449  -0.01127  -0.06795
   X19        6.15322   0.00208   0.00000  -0.00693  -0.00714   6.14608
   Y19       -2.13520   0.00227   0.00000   0.04192   0.03709  -2.09810
   Z19       -0.01546  -0.00032   0.00000  -0.07686  -0.06850  -0.08396
   X20        3.67075  -0.00394   0.00000  -0.06981  -0.06747   3.60328
   Y20        1.81747   0.00413   0.00000   0.02968   0.02651   1.84398
   Z20       -0.01414   0.00070   0.00000  -0.05424  -0.04852  -0.06266
   X21       -5.09562   0.00332   0.00000   0.04460   0.05108  -5.04455
   Y21       10.37761   0.00057   0.00000   0.04159   0.04096  10.41857
   Z21       -3.33025  -0.00282   0.00000   0.04459   0.04594  -3.28431
   X22       -8.75531  -0.00073   0.00000   0.00320   0.01122  -8.74410
   Y22       10.93001   0.00213   0.00000  -0.00092   0.00349  10.93350
   Z22       -0.48036  -0.00077   0.00000   0.01699   0.01944  -0.46092
   X23       -9.93517  -0.00131   0.00000  -0.02429  -0.01726  -9.95242
   Y23        7.50054  -0.00090   0.00000  -0.05195  -0.04399   7.45655
   Z23        2.49626   0.00217   0.00000  -0.03539  -0.02914   2.46712
   X24       -7.42995   0.00272   0.00000  -0.00915  -0.00463  -7.43459
   Y24        3.55496  -0.00389   0.00000  -0.06415  -0.05774   3.49722
   Z24        2.63059   0.00051   0.00000  -0.08986  -0.08095   2.54964
         Item               Value     Threshold  Converged?
 Maximum Force            0.013390     0.000450     NO 
 RMS     Force            0.005025     0.000300     NO 
 Maximum Displacement     0.124339     0.001800     NO 
 RMS     Displacement     0.034852     0.001200     NO 
 Predicted change in Energy=-1.919724D-03
 Lowest energy point so far.  Saving SCF results.
 Step   1 in ReCalcFC=30 IGetFC= 0 compute gradient.
 GradGradGradGradGradGradGradGradGradGradGradGradGradGradGradGradGradGrad

 Leave Link  103 at Fri Mar  6 16:27:24 2026, MaxMem=  2415919104 cpu:               0.3 elap:               0.2
 (Enter /prod/precompiled/gaussian/16c2/g16/l202.exe)
                          Input orientation:                          
 ---------------------------------------------------------------------
 Center     Atomic      Atomic             Coordinates (Angstroms)
 Number     Number       Type             X           Y           Z
 ---------------------------------------------------------------------
      1          6           0       -0.008313   -0.014360   -0.000472
      2          6           0       -0.631377   -1.284050    0.002821
      3         17           0       -2.348098   -1.541709    0.046579
      4          6           0        0.138992   -2.455661   -0.015684
      5          6           0        1.528675   -2.398050   -0.029987
      6          6           0        2.164106   -1.161827   -0.034588
      7          6           0        1.401257    0.009810   -0.023682
      8          7           0       -0.629147    1.268070    0.028827
      9          7           0       -1.866950    1.246951   -0.076712
     10          6           0       -2.499682    2.508414   -0.118354
     11          6           0       -2.165910    3.548898   -1.001748
     12         17           0       -0.853012    3.422772   -2.127562
     13          6           0       -2.932687    4.720676   -1.040547
     14          6           0       -4.037009    4.870640   -0.204171
     15          6           0       -4.392165    3.842696    0.663927
     16          6           0       -3.635561    2.669145    0.694885
     17          1           0       -0.361349   -3.422680   -0.013204
     18          1           0        2.107798   -3.320576   -0.035955
     19          1           0        3.252365   -1.110268   -0.044432
     20          1           0        1.906772    0.975793   -0.033159
     21          1           0       -2.669458    5.513271   -1.737981
     22          1           0       -4.627176    5.785759   -0.243907
     23          1           0       -5.266596    3.945834    1.305546
     24          1           0       -3.934213    1.850649    1.349209
 ---------------------------------------------------------------------
                    Distance matrix (angstroms):
                    1          2          3          4          5
     1  C    0.000000
     2  C    1.414331   0.000000
     3  Cl   2.794567   1.736500   0.000000
     4  C    2.445788   1.402313   2.650434   0.000000
     5  C    2.836403   2.430617   3.970964   1.390951   0.000000
     6  C    2.457080   2.798403   4.528894   2.403217   1.389978
     7  C    1.409968   2.409643   4.058301   2.769824   2.411237
     8  N    1.425104   2.552254   3.293929   3.802393   4.254420
     9  N    2.247499   2.817611   2.832549   4.211516   4.981816
    10  C    3.547564   4.229424   4.056314   5.622738   6.348926
    11  C    4.284226   5.169269   5.200621   6.506890   7.068272
    12  Cl   4.129395   5.171250   5.622121   6.324561   6.629798
    13  C    5.661651   6.514705   6.382872   7.873078   8.461752
    14  C    6.335228   7.037143   6.635776   8.434998   9.156475
    15  C    5.876774   6.392504   5.792335   7.788617   8.630456
    16  C    4.565266   5.013165   4.450748   6.404358   7.271262
    17  H    3.426578   2.155669   2.736566   1.088794   2.149963
    18  H    3.925589   3.413506   4.798561   2.150508   1.089253
    19  H    3.440199   3.887916   5.617794   3.391755   2.151673
    20  H    2.156158   3.398586   4.944501   3.860081   3.394964
    21  H    6.376154   7.306691   7.284276   8.623084   9.117597
    22  H    7.418527   8.124622   7.679217   9.523101  10.242803
    23  H    6.711063   7.108729   6.341590   8.482050   9.391711
    24  H    4.551109   4.748455   3.964934   6.082617   7.056683
                    6          7          8          9         10
     6  C    0.000000
     7  C    1.398138   0.000000
     8  N    3.702794   2.389250   0.000000
     9  N    4.696105   3.494926   1.242474   0.000000
    10  C    5.935369   4.633499   2.249226   1.411868   0.000000
    11  C    6.471118   5.119223   2.936989   2.498805   1.405132
    12  Cl   5.873847   4.599603   3.056611   3.157254   2.753995
    13  C    7.848126   6.481462   4.286064   3.759193   2.435577
    14  C    8.652932   7.296231   4.964506   4.225698   2.819725
    15  C    8.277551   6.980513   4.603515   3.696369   2.444128
    16  C    6.988892   5.740901   3.383071   2.397078   1.406205
    17  H    3.389666   3.858610   4.698576   4.906763   6.305664
    18  H    2.159484   3.404530   5.343289   6.054964   7.430531
    19  H    1.089525   2.163702   4.552801   5.636037   6.796056
    20  H    2.153054   1.090302   2.553459   3.783702   4.666157
    21  H    8.415570   7.056744   5.030528   4.648152   3.417774
    22  H    9.717730   8.351772   6.038885   5.314845   3.909346
    23  H    9.115892   7.856169   5.505122   4.555458   3.427751
    24  H    6.941138   5.808680   3.606421   2.582882   2.155058
                   11         12         13         14         15
    11  C    0.000000
    12  Cl   1.734090   0.000000
    13  C    1.400898   2.681642   0.000000
    14  C    2.425725   3.991691   1.393392   0.000000
    15  C    2.795890   4.527069   2.409597   1.391546   0.000000
    16  C    2.410893   4.034444   2.777505   2.411647   1.396649
    17  H    7.268876   7.181396   8.601247   9.073373   8.336166
    18  H    8.147823   7.655975   9.543449  10.241239   9.698032
    19  H    7.209854   6.460805   8.558447   9.430364   9.136327
    20  H    4.913835   4.241537   6.201559   7.108277   6.955693
    21  H    2.157397   2.796684   1.088077   2.153077   3.395247
    22  H    3.411114   4.834892   2.154143   1.089642   2.157519
    23  H    3.885282   5.616008   3.398774   2.155550   1.089469
    24  H    3.396755   4.904417   3.866658   3.397633   2.155825
                   16         17         18         19         20
    16  C    0.000000
    17  H    6.952136   0.000000
    18  H    8.330490   2.471361   0.000000
    19  H    7.891393   4.290356   2.489090   0.000000
    20  H    5.840800   4.948872   4.301071   2.482418   0.000000
    21  H    3.865390   9.389006  10.186065   9.044743   6.666109
    22  H    3.402633  10.151150  11.328215  10.472925   8.116198
    23  H    2.159425   8.949612  10.439446   9.997965   7.878482
    24  H    1.089619   6.513795   8.072555   7.896593   6.065758
                   21         22         23         24
    21  H    0.000000
    22  H    2.477734   0.000000
    23  H    4.297096   2.488973   0.000000
    24  H    4.954306   4.301548   2.483335   0.000000
 Symmetry turned off by external request.
 Stoichiometry    C12H8Cl2N2
 Framework group  C1[X(C12H8Cl2N2)]
 Deg. of freedom    66
 Full point group                 C1      NOp   1
 Rotational constants (GHZ):           0.8488653           0.2487515           0.2055534
 Leave Link  202 at Fri Mar  6 16:27:24 2026, MaxMem=  2415919104 cpu:               0.1 elap:               0.1
 (Enter /prod/precompiled/gaussian/16c2/g16/l301.exe)
 Standard basis: def2SVP (5D, 7F)
 Ernie: Thresh=  0.10000D-02 Tol=  0.10000D-05 Strict=F.
   272 basis functions,   480 primitive gaussians,   288 cartesian basis functions
    64 alpha electrons       64 beta electrons
       nuclear repulsion energy      1194.7462584866 Hartrees.
 IExCor= 4639 DFT=T Ex+Corr=wB97XD ExCW=0 ScaHFX=  1.000000
 ScaDFX=  1.000000  1.000000  1.000000  1.000000 ScalE2=  1.000000  1.000000
 IRadAn=      5 IRanWt=     -1 IRanGd=            0 ICorTp=0 IEmpDi=121
 HFx  wShort=  0.000000 wLong=  0.200000 cFull=  0.222036 cShort=  0.000000 cLong=  0.777964
 DFx  wShort=  0.000000 wLong=  0.200000 cFull=  0.000000 cShort=  0.000000 cLong=  1.000000
 NAtoms=   24 NActive=   24 NUniq=   24 SFac= 1.00D+00 NAtFMM=   60 NAOKFM=F Big=F
 Integral buffers will be    131072 words long.
 Raffenetti 2 integral format.
 Two-electron integral symmetry is turned off.
 R6Disp:  Grimme-D2 Dispersion energy=       -0.0134001952 Hartrees.
 Nuclear repulsion after empirical dispersion term =     1194.7328582914 Hartrees.
 Leave Link  301 at Fri Mar  6 16:27:24 2026, MaxMem=  2415919104 cpu:               0.1 elap:               0.1
 (Enter /prod/precompiled/gaussian/16c2/g16/l302.exe)
 NPDir=0 NMtPBC=     1 NCelOv=     1 NCel=       1 NClECP=     1 NCelD=      1
         NCelK=      1 NCelE2=     1 NClLst=     1 CellRange=     0.0.
 One-electron integrals computed using PRISM.
   1 Symmetry operations used in ECPInt.
 ECPInt:  NShTT=    7750 NPrTT=   30142 LenC2=    6984 LenP2D=   18901.
 LDataN:  DoStor=T MaxTD1= 4 Len=   56
 NBasis=   272 RedAO= T EigKep=  2.31D-04  NBF=   272
 NBsUse=   272 1.00D-06 EigRej= -1.00D+00 NBFU=   272
 Precomputing XC quadrature grid using
 IXCGrd= 4 IRadAn=           5 IRanWt=          -1 IRanGd=           0 AccXCQ= 0.00D+00.
 Generated NRdTot=       0 NPtTot=           0 NUsed=           0 NTot=          32
 NSgBfM=   286   286   286   286   286 MxSgAt=    24 MxSgA2=    24.
 Leave Link  302 at Fri Mar  6 16:27:25 2026, MaxMem=  2415919104 cpu:               1.7 elap:               0.3
[...]
 Alpha  occ. eigenvalues --   -1.00513  -0.99129  -0.94569  -0.94076  -0.90826
 Alpha  occ. eigenvalues --   -0.85721  -0.83892  -0.83272  -0.77986  -0.71614
 Alpha  occ. eigenvalues --   -0.71428  -0.71048  -0.66810  -0.63041  -0.60126
 Alpha  occ. eigenvalues --   -0.58721  -0.58599  -0.56040  -0.55430  -0.53964
 Alpha  occ. eigenvalues --   -0.53653  -0.52458  -0.52357  -0.49826  -0.49286
 Alpha  occ. eigenvalues --   -0.47480  -0.46689  -0.46490  -0.45245  -0.44219
 Alpha  occ. eigenvalues --   -0.42539  -0.42323  -0.40317  -0.39187  -0.36768
 Alpha  occ. eigenvalues --   -0.33829  -0.33300  -0.31884  -0.30632
 Alpha virt. eigenvalues --   -0.01812   0.04361   0.04420   0.05415   0.08742
 Alpha virt. eigenvalues --    0.10894   0.11815   0.15837   0.16256   0.18154
 Alpha virt. eigenvalues --    0.18649   0.21257   0.21848   0.22165   0.22236
 Alpha virt. eigenvalues --    0.22568   0.22877   0.28993   0.30169   0.34063
 Alpha virt. eigenvalues --    0.34812   0.34875   0.35327   0.36053   0.36070
 Alpha virt. eigenvalues --    0.37099   0.39350   0.40654   0.43039   0.45370
 Alpha virt. eigenvalues --    0.46462   0.46612   0.48045   0.48144   0.50561
 Alpha virt. eigenvalues --    0.51091   0.52108   0.53625   0.53812   0.54043
 Alpha virt. eigenvalues --    0.54652   0.54724   0.56629   0.56686   0.59727
 Alpha virt. eigenvalues --    0.60005   0.60634   0.60867   0.61167   0.61808
 Alpha virt. eigenvalues --    0.63531   0.64105   0.66880   0.67135   0.67644
 Alpha virt. eigenvalues --    0.68168   0.68812   0.69684   0.71143   0.72006
 Alpha virt. eigenvalues --    0.73417   0.73918   0.74627   0.74946   0.75448
 Alpha virt. eigenvalues --    0.75538   0.77723   0.78746   0.78862   0.79550
 Alpha virt. eigenvalues --    0.79702   0.80331   0.81405   0.82433   0.83041
 Alpha virt. eigenvalues --    0.84289   0.86492   0.86536   0.87363   0.87475
 Alpha virt. eigenvalues --    0.88650   0.88942   0.89708   0.90471   0.91816
 Alpha virt. eigenvalues --    0.92292   0.93476   0.94598   0.97293   0.98050
 Alpha virt. eigenvalues --    0.99477   1.02522   1.03526   1.05787   1.06789
 Alpha virt. eigenvalues --    1.08517   1.09416   1.13610   1.15546   1.16305
 Alpha virt. eigenvalues --    1.19142   1.22776   1.24062   1.25998   1.27174
 Alpha virt. eigenvalues --    1.27834   1.31534   1.31892   1.33304   1.33325
 Alpha virt. eigenvalues --    1.33862   1.34069   1.35847   1.36086   1.37535
 Alpha virt. eigenvalues --    1.37830   1.39402   1.44119   1.46882   1.49733
 Alpha virt. eigenvalues --    1.54914   1.57366   1.58437   1.59177   1.62241
 Alpha virt. eigenvalues --    1.68106   1.73519   1.74014   1.77248   1.77446
 Alpha virt. eigenvalues --    1.78181   1.78326   1.79106   1.80309   1.83367
 Alpha virt. eigenvalues --    1.83915   1.83919   1.84258   1.85169   1.85662
 Alpha virt. eigenvalues --    1.85841   1.89768   1.91074   1.91091   1.94553
 Alpha virt. eigenvalues --    1.97458   1.97968   1.99929   2.01989   2.02169
 Alpha virt. eigenvalues --    2.02305   2.04056   2.05571   2.07474   2.09263
 Alpha virt. eigenvalues --    2.13505   2.14349   2.16514   2.18112   2.21373
 Alpha virt. eigenvalues --    2.21778   2.21867   2.23575   2.27054   2.31029
 Alpha virt. eigenvalues --    2.31052   2.31987   2.33410   2.35296   2.35325
 Alpha virt. eigenvalues --    2.36169   2.38714   2.39319   2.39556   2.43820
 Alpha virt. eigenvalues --    2.46156   2.49271   2.54329   2.56664   2.59401
 Alpha virt. eigenvalues --    2.64938   2.66662   2.68077   2.70022   2.70714
 Alpha virt. eigenvalues --    2.70908   2.71360   2.74920   2.79728   2.79793
 Alpha virt. eigenvalues --    2.85518   2.86498   2.89143   2.89807   2.93523
 Alpha virt. eigenvalues --    2.97549   2.98187   2.99300   3.09231   3.12962
 Alpha virt. eigenvalues --    3.15134   3.16130   3.24485   3.24800   3.46897
 Alpha virt. eigenvalues --    3.49473   3.67510   3.69568
          Condensed to atoms (all electrons):
               1          2          3          4          5          6
     1  C    5.098740   0.226702  -0.057497   0.083595  -0.138172   0.093315
     2  C    0.226702   5.259856   0.258908   0.342464   0.083454  -0.148319
     3  Cl  -0.057497   0.258908  16.918149  -0.056729   0.002956   0.000691
     4  C    0.083595   0.342464  -0.056729   4.978705   0.311878   0.075216
     5  C   -0.138172   0.083454   0.002956   0.311878   5.053369   0.279819
     6  C    0.093315  -0.148319   0.000691   0.075216   0.279819   5.088102
     7  C    0.366595   0.040177   0.001064  -0.104324   0.071945   0.290136
     8  N    0.373949  -0.064728  -0.002921   0.004592  -0.000246   0.006847
     9  N   -0.072939  -0.009164  -0.000375  -0.000990   0.000081  -0.000339
    10  C    0.009141   0.000144  -0.001376   0.000023  -0.000000   0.000006
    11  C    0.000143   0.000064  -0.000009  -0.000002   0.000000   0.000000
    12  Cl  -0.001368  -0.000009   0.000000  -0.000001   0.000001   0.000024
    13  C    0.000023  -0.000002  -0.000001   0.000000   0.000000   0.000000
    14  C   -0.000000   0.000000   0.000001   0.000000  -0.000000   0.000000
    15  C    0.000006   0.000000   0.000024   0.000000   0.000000  -0.000000
    16  C   -0.000189   0.000018   0.000307   0.000000  -0.000000   0.000000
    17  H    0.016103  -0.062606   0.002337   0.437991  -0.057861   0.012477
    18  H   -0.001712   0.013722  -0.000122  -0.060264   0.445171  -0.064460
    19  H    0.013203  -0.001456   0.000007   0.012147  -0.064885   0.448864
    20  H   -0.062713   0.019628  -0.000064  -0.002983   0.013306  -0.068466
    21  H   -0.000000   0.000000  -0.000000  -0.000000  -0.000000  -0.000000
    22  H    0.000000  -0.000000  -0.000000  -0.000000   0.000000   0.000000
    23  H   -0.000000   0.000000  -0.000001  -0.000000   0.000000   0.000000
    24  H   -0.000221  -0.000043   0.004513  -0.000001  -0.000000  -0.000000
               7          8          9         10         11         12
     1  C    0.366595   0.373949  -0.072939   0.009141   0.000143  -0.001368
     2  C    0.040177  -0.064728  -0.009164   0.000144   0.000064  -0.000009
     3  Cl   0.001064  -0.002921  -0.000375  -0.001376  -0.000009   0.000000
     4  C   -0.104324   0.004592  -0.000990   0.000023  -0.000002  -0.000001
     5  C    0.071945  -0.000246   0.000081  -0.000000   0.000000   0.000001
     6  C    0.290136   0.006847  -0.000339   0.000006   0.000000   0.000024
     7  C    5.023644  -0.074665   0.002750  -0.000190   0.000018   0.000308
     8  N   -0.074665   6.621937   0.316081  -0.072908  -0.009141  -0.000353
     9  N    0.002750   0.316081   6.622149   0.373850  -0.064702  -0.002926
    10  C   -0.000190  -0.072908   0.373850   5.098609   0.226876  -0.057524
    11  C    0.000018  -0.009141  -0.064702   0.226876   5.259614   0.258911
    12  Cl   0.000308  -0.000353  -0.002926  -0.057524   0.258911  16.918186
    13  C    0.000000  -0.000989   0.004592   0.083555   0.342489  -0.056719
    14  C   -0.000000   0.000081  -0.000246  -0.138167   0.083446   0.002955
    15  C    0.000000  -0.000338   0.006846   0.093298  -0.148309   0.000691
    16  C   -0.000029   0.002738  -0.074649   0.366590   0.040223   0.001063
    17  H   -0.001978  -0.000086   0.000025  -0.000000   0.000000  -0.000000
    18  H    0.012397   0.000007   0.000000   0.000000  -0.000000  -0.000000
    19  H   -0.062597  -0.000108   0.000003  -0.000000   0.000000  -0.000001
    20  H    0.443941  -0.003360   0.000243  -0.000221  -0.000042   0.004498
    21  H   -0.000000   0.000025  -0.000086   0.016104  -0.062608   0.002334
    22  H    0.000000   0.000000   0.000007  -0.001712   0.013722  -0.000122
    23  H   -0.000000   0.000003  -0.000108   0.013203  -0.001456   0.000007
    24  H    0.000002   0.000243  -0.003374  -0.062718   0.019619  -0.000064
              13         14         15         16         17         18
     1  C    0.000023  -0.000000   0.000006  -0.000189   0.016103  -0.001712
     2  C   -0.000002   0.000000   0.000000   0.000018  -0.062606   0.013722
     3  Cl  -0.000001   0.000001   0.000024   0.000307   0.002337  -0.000122
     4  C    0.000000   0.000000   0.000000   0.000000   0.437991  -0.060264
     5  C    0.000000  -0.000000   0.000000  -0.000000  -0.057861   0.445171
     6  C    0.000000   0.000000  -0.000000   0.000000   0.012477  -0.064460
     7  C    0.000000  -0.000000   0.000000  -0.000029  -0.001978   0.012397
     8  N   -0.000989   0.000081  -0.000338   0.002738  -0.000086   0.000007
     9  N    0.004592  -0.000246   0.006846  -0.074649   0.000025   0.000000
    10  C    0.083555  -0.138167   0.093298   0.366590  -0.000000   0.000000
    11  C    0.342489   0.083446  -0.148309   0.040223   0.000000  -0.000000
    12  Cl  -0.056719   0.002955   0.000691   0.001063  -0.000000  -0.000000
    13  C    4.978695   0.311906   0.075207  -0.104320  -0.000000  -0.000000
    14  C    0.311906   5.053367   0.279840   0.071929  -0.000000   0.000000
    15  C    0.075207   0.279840   5.088044   0.290187  -0.000000   0.000000
    16  C   -0.104320   0.071929   0.290187   5.023579  -0.000000   0.000000
    17  H   -0.000000  -0.000000  -0.000000  -0.000000   0.640008  -0.011389
    18  H   -0.000000   0.000000   0.000000   0.000000  -0.011389   0.643629
    19  H   -0.000000   0.000000   0.000000  -0.000000  -0.000192  -0.010554
    20  H   -0.000001  -0.000000  -0.000000   0.000002   0.000018  -0.000198
    21  H    0.437994  -0.057863   0.012475  -0.001978   0.000000  -0.000000
    22  H   -0.060264   0.445169  -0.064460   0.012397  -0.000000  -0.000000
    23  H    0.012145  -0.064883   0.448855  -0.062592   0.000000  -0.000000
    24  H   -0.002982   0.013305  -0.068451   0.443944  -0.000000   0.000000
              19         20         21         22         23         24
     1  C    0.013203  -0.062713  -0.000000   0.000000  -0.000000  -0.000221
     2  C   -0.001456   0.019628   0.000000  -0.000000   0.000000  -0.000043
     3  Cl   0.000007  -0.000064  -0.000000  -0.000000  -0.000001   0.004513
     4  C    0.012147  -0.002983  -0.000000  -0.000000  -0.000000  -0.000001
     5  C   -0.064885   0.013306  -0.000000   0.000000   0.000000  -0.000000
     6  C    0.448864  -0.068466  -0.000000   0.000000   0.000000  -0.000000
     7  C   -0.062597   0.443941  -0.000000   0.000000  -0.000000   0.000002
     8  N   -0.000108  -0.003360   0.000025   0.000000   0.000003   0.000243
     9  N    0.000003   0.000243  -0.000086   0.000007  -0.000108  -0.003374
    10  C   -0.000000  -0.000221   0.016104  -0.001712   0.013203  -0.062718
    11  C    0.000000  -0.000042  -0.062608   0.013722  -0.001456   0.019619
    12  Cl  -0.000001   0.004498   0.002334  -0.000122   0.000007  -0.000064
    13  C   -0.000000  -0.000001   0.437994  -0.060264   0.012145  -0.002982
    14  C    0.000000  -0.000000  -0.057863   0.445169  -0.064883   0.013305
    15  C    0.000000  -0.000000   0.012475  -0.064460   0.448855  -0.068451
    16  C   -0.000000   0.000002  -0.001978   0.012397  -0.062592   0.443944
    17  H   -0.000192   0.000018   0.000000  -0.000000   0.000000  -0.000000
    18  H   -0.010554  -0.000198  -0.000000  -0.000000  -0.000000   0.000000
    19  H    0.643924  -0.010509   0.000000  -0.000000   0.000000  -0.000000
    20  H   -0.010509   0.640674  -0.000000   0.000000  -0.000000   0.000001
    21  H    0.000000  -0.000000   0.640010  -0.011389  -0.000192   0.000018
    22  H   -0.000000   0.000000  -0.011389   0.643638  -0.010553  -0.000198
    23  H    0.000000  -0.000000  -0.000192  -0.010553   0.643924  -0.010510
    24  H   -0.000000   0.000001   0.000018  -0.000198  -0.010510   0.640684
 Mulliken charges:
               1
     1  C    0.053297
     2  C    0.041191
     3  Cl  -0.069860
     4  C   -0.021317
     5  C   -0.000815
     6  C   -0.013914
     7  C   -0.009193
     8  N   -0.096660
     9  N   -0.096730
    10  C    0.053415
    11  C    0.041146
    12  Cl  -0.069891
    13  C   -0.021329
    14  C   -0.000840
    15  C   -0.013916
    16  C   -0.009222
    17  H    0.025153
    18  H    0.033774
    19  H    0.032155
    20  H    0.026246
    21  H    0.025156
    22  H    0.033765
    23  H    0.032158
    24  H    0.026231
 Sum of Mulliken charges =  -0.00000
 Mulliken charges with hydrogens summed into heavy atoms:
               1
     1  C    0.053297
     2  C    0.041191
     3  Cl  -0.069860
     4  C    0.003836
     5  C    0.032959
     6  C    0.018241
     7  C    0.017054
     8  N   -0.096660
     9  N   -0.096730
    10  C    0.053415
    11  C    0.041146
    12  Cl  -0.069891
    13  C    0.003827
    14  C    0.032925
    15  C    0.018242
    16  C    0.017010
 APT charges:
               1
     1  C   -0.410056
     2  C   -0.072933
     3  Cl   0.052086
     4  C   -0.584343
     5  C   -0.469101
     6  C   -0.457954
     7  C   -0.434273
     8  N   -0.140192
     9  N   -0.101765
    10  C   -0.911329
    11  C   -0.395093
    12  Cl  -0.000899
    13  C   -0.475710
    14  C   -0.615370
    15  C   -0.578861
    16  C   -0.191613
    17  H    0.634177
    18  H    0.759332
    19  H    0.616772
    20  H    0.325325
    21  H    0.896784
    22  H    1.395950
    23  H    1.030690
    24  H    0.128375
 Sum of APT charges =  -0.00000
 APT charges with hydrogens summed into heavy atoms:
               1
     1  C   -0.410056
     2  C   -0.072933
     3  Cl   0.052086
     4  C    0.049834
     5  C    0.290231
     6  C    0.158818
     7  C   -0.108948
     8  N   -0.140192
     9  N   -0.101765
    10  C   -0.911329
    11  C   -0.395093
    12  Cl  -0.000899
    13  C    0.421074
    14  C    0.780580
    15  C    0.451829
    16  C   -0.063238
 Electronic spatial extent (au):  <R**2>=           6476.3620
 Charge=             -0.0000 electrons
 Dipole moment (field-independent basis, Debye):
    X=              0.0006    Y=             -0.0010    Z=              0.0003  Tot=              0.0012
 Quadrupole moment (field-independent basis, Debye-Ang):
   XX=            -90.2432   YY=            -90.5546   ZZ=           -108.2895
   XY=            -12.1284   XZ=             -4.3293   YZ=             -0.5917
 Traceless Quadrupole moment (field-independent basis, Debye-Ang):
   XX=              6.1192   YY=              5.8078   ZZ=            -11.9270
   XY=            -12.1284   XZ=             -4.3293   YZ=             -0.5917
 Octapole moment (field-independent basis, Debye-Ang**2):
  XXX=            342.4965  YYY=           -333.6055  ZZZ=             36.4648  XYY=             84.7588
  XXY=            -80.1212  XXZ=             21.0959  XZZ=            137.9435  YZZ=           -132.8266
  YYZ=              8.6792  XYZ=             -3.1989
 Hexadecapole moment (field-independent basis, Debye-Ang**3):
 XXXX=          -2985.8213 YYYY=          -4458.1226 ZZZZ=           -456.3657 XXXY=           1099.7405
 XXXZ=            -32.6846 YYYX=           1017.0048 YYYZ=            310.5404 ZZZX=             73.6484
 ZZZY=            384.9227 XXYY=          -1130.5697 XXZZ=           -660.4087 YYZZ=           -951.9531
 XXYZ=            161.0278 YYXZ=             25.5531 ZZXY=            488.5835
 N-N= 1.195858654779D+03 E-N=-5.902622415691D+03  KE= 1.483286592860D+03
  Exact polarizability:       0.000       0.000       0.000       0.000       0.000       0.000
 Approx polarizability:     231.561     -25.462     209.210     -39.676     -19.915     109.760
 No NMR shielding tensors so no spin-rotation constants.
 Leave Link  601 at Fri Mar  6 16:46:14 2026, MaxMem=  2415919104 cpu:               0.8 elap:               0.2
 (Enter /prod/precompiled/gaussian/16c2/g16/l716.exe)
 Dipole        = 2.26230687D-04-3.91334477D-04 1.34423970D-04
 Polarizability= 0.00000000D+00 0.00000000D+00 0.00000000D+00
                 0.00000000D+00 0.00000000D+00 0.00000000D+00
 -------------------------------------------------------------------
 Center     Atomic                   Forces (Hartrees/Bohr)
 Number     Number              X              Y              Z
 -------------------------------------------------------------------
      1        6          -0.000003593    0.000004183   -0.000000113
      2        6          -0.000009796   -0.000005188    0.000003097
      3       17           0.000001450   -0.000002893   -0.000008356
      4        6          -0.000002322    0.000000684   -0.000000437
      5        6          -0.000001523   -0.000006063    0.000002176
      6        6           0.000004504    0.000005258   -0.000003839
      7        6          -0.000001784   -0.000001090    0.000000754
      8        7          -0.000002671   -0.000000712    0.000001027
      9        7           0.000001060   -0.000001840   -0.000000805
     10        6           0.000000272    0.000000570   -0.000000765
     11        6           0.000000895   -0.000009756    0.000004033
     12       17           0.000008824    0.000001238    0.000003221
     13        6          -0.000003991    0.000006800    0.000004993
     14        6          -0.000002138   -0.000006840    0.000003634
     15        6          -0.000001931    0.000010935   -0.000003625
     16        6           0.000003326   -0.000005499   -0.000004426
     17        1          -0.000002696   -0.000004822    0.000001763
     18        1           0.000002316   -0.000000074   -0.000000683
     19        1           0.000007968    0.000001855   -0.000001586
     20        1           0.000003544    0.000005528   -0.000001346
     21        1          -0.000000904   -0.000002650    0.000003671
     22        1          -0.000003116    0.000006374    0.000002059
     23        1           0.000002051    0.000002822   -0.000002180
     24        1           0.000000254    0.000001182   -0.000002268
 -------------------------------------------------------------------
 Cartesian Forces:  Max     0.000010935 RMS     0.000004048
 Leave Link  716 at Fri Mar  6 16:46:14 2026, MaxMem=  2415919104 cpu:               0.1 elap:               0.1
 (Enter /prod/precompiled/gaussian/16c2/g16/l9999.exe)
 Unable to Open any file for archive entry.
 1\1\GINC-AMD20\FOpt\RwB97XD\def2SVP\C12H8Cl2N2\SVELA\06-Mar-2026\0\\#p
  nosymm scf=(maxconventionalcycles=200,xqc) wB97XD def2SVP opt=(Recalc
 FC=30,cartesian,skipdihedral)\\Title Card\\0,1\C,-0.0311005496,-0.0365
 248126,0.0318499769\C,-0.5779255385,-1.250981809,0.4835302539\Cl,-2.16
 26829963,-1.3572372516,1.1928514768\C,0.186399172,-2.4173693073,0.4325
 35607\C,1.4817185811,-2.3910003167,-0.0762933149\C,2.0377639223,-1.188
 8630739,-0.5119872706\C,1.288880669,-0.0216815965,-0.4343703637\N,-0.6
 690067826,1.2286322486,0.0551467015\N,-1.8603673836,1.2275677128,-0.27
 86207332\C,-2.498470075,2.4926010233,-0.2554667902\C,-1.9522765921,3.7
 068055883,-0.7085623417\Cl,-0.3679304517,3.8127406069,-1.418788552\C,-
 2.7169341012,4.8730030761,-0.6582275706\C,-4.0119016304,4.8467025592,-
 0.1484882792\C,-4.5672581507,3.6448155274,0.288859386\C,-3.818100147,2
 .4777875622,0.2117763925\H,-0.2501936053,-3.3472800115,0.7994649389\H,
 2.0615579006,-3.3151133139,-0.1169083719\H,3.0578761585,-1.158883,-0.8
 986415331\H,1.6973752441,0.9413047164,-0.7458615062\H,-2.2808910929,5.
 8026994044,-1.0263929695\H,-4.5920476053,5.7706384126,-0.1084417824\H,
 -5.5870943031,3.614873674,0.6762866968\H,-4.2261306422,1.5149583808,0.
 5243979488\\Version=ES64L-G16RevC.02\HF=-1491.0341414\RMSD=4.593e-09\R
 MSF=4.048e-06\Dipole=0.0002262,-0.0003913,0.0001344\Polar=0.,0.,0.,0.,
 0.,0.\Quadrupole=4.5494901,4.3179736,-8.8674637,-9.0171972,-3.2187429,
 -0.439935\PG=C01 [X(C12H8Cl2N2)]\\@
 The archive entry for this job was punched.


 BULLDOZER: SOMEONE WHO SLEEPS THROUGH SPEECHES.
 Job cpu time:       0 days  3 hours 10 minutes 33.4 seconds.
 Elapsed time:       0 days  0 hours 20 minutes 45.5 seconds.
 File lengths (MBytes):  RWF=    245 Int=      0 D2E=      0 Chk=      7 Scr=      1
 Normal termination of Gaussian 16 at Fri Mar  6 16:46:15 2026.
