 Entering Gaussian System, Link 0=g16
 Initial command:
 /prod/precompiled/gaussian/16c2/g16/l1.exe "/scratch/ucsscms/svela/2076950/Gau-289007.inp" -scrdir="/scratch/ucsscms/svela/2076950/"
 Entering Link 1 = /prod/precompiled/gaussian/16c2/g16/l1.exe PID=    289008.
  
 Copyright (c) 1988-2021, Gaussian, Inc.  All Rights Reserved.
  
 This is part of the Gaussian(R) 16 program.  It is based on
 the Gaussian(R) 09 system (copyright 2009, Gaussian, Inc.),
 the Gaussian(R) 03 system (copyright 2003, Gaussian, Inc.),
 the Gaussian(R) 98 system (copyright 1998, Gaussian, Inc.),
 the Gaussian(R) 94 system (copyright 1995, Gaussian, Inc.),
 the Gaussian 92(TM) system (copyright 1992, Gaussian, Inc.),
 the Gaussian 90(TM) system (copyright 1990, Gaussian, Inc.),
 the Gaussian 88(TM) system (copyright 1988, Gaussian, Inc.),
 the Gaussian 86(TM) system (copyright 1986, Carnegie Mellon
 University), and the Gaussian 82(TM) system (copyright 1983,
 Carnegie Mellon University). Gaussian is a federally registered
 trademark of Gaussian, Inc.
  
 This software contains proprietary and confidential information,
 including trade secrets, belonging to Gaussian, Inc.
  
 This software is provided under written license and may be
 used, copied, transmitted, or stored only in accord with that
 written license.
  
 The following legend is applicable only to US Government
 contracts under FAR:
  
                    RESTRICTED RIGHTS LEGEND
  
 Use, reproduction and disclosure by the US Government is
 subject to restrictions as set forth in subparagraphs (a)
 and (c) of the Commercial Computer Software - Restricted
 Rights clause in FAR 52.227-19.
  
 Gaussian, Inc.
 340 Quinnipiac St., Bldg. 40, Wallingford CT 06492
  
  
 ---------------------------------------------------------------
 Warning -- This program may not be used in any manner that
 competes with the business of Gaussian, Inc. or will provide
 assistance to any competitor of Gaussian, Inc.  The licensee
 of this program is prohibited from giving any competitor of
 Gaussian, Inc. access to this program.  By using this program,
 the user acknowledges that Gaussian, Inc. is engaged in the
 business of creating and licensing software in the field of
 computational chemistry and represents and warrants to the
 licensee that it is not a competitor of Gaussian, Inc. and that
 it will not use this program in any manner prohibited above.
 ---------------------------------------------------------------
  

 Cite this work as:
 Gaussian 16, Revision C.02,
 M. J. Frisch, G. W. Trucks, H. B. Schlegel, G. E. Scuseria, 
 M. A. Robb, J. R. Cheeseman, G. Scalmani, V. Barone, 
 G. A. Petersson, H. Nakatsuji, X. Li, M. Caricato, A. V. Marenich, 
 J. Bloino, B. G. Janesko, R. Gomperts, B. Mennucci, H. P. Hratchian, 
 J. V. Ortiz, A. F. Izmaylov, J. L. Sonnenberg, D. Williams-Young, 
 F. Ding, F. Lipparini, F. Egidi, J. Goings, B. Peng, A. Petrone, 
 T. Henderson, D. Ranasinghe, V. G. Zakrzewski, J. Gao, N. Rega, 
 G. Zheng, W. Liang, M. Hada, M. Ehara, K. Toyota, R. Fukuda, 
 J. Hasegawa, M. Ishida, T. Nakajima, Y. Honda, O. Kitao, H. Nakai, 
 T. Vreven, K. Throssell, J. A. Montgomery, Jr., J. E. Peralta, 
 F. Ogliaro, M. J. Bearpark, J. J. Heyd, E. N. Brothers, K. N. Kudin, 
 V. N. Staroverov, T. A. Keith, R. Kobayashi, J. Normand, 
 K. Raghavachari, A. P. Rendell, J. C. Burant, S. S. Iyengar, 
 J. Tomasi, M. Cossi, J. M. Millam, M. Klene, C. Adamo, R. Cammi, 
 J. W. Ochterski, R. L. Martin, K. Morokuma, O. Farkas, 
 J. B. Foresman, and D. J. Fox, Gaussian, Inc., Wallingford CT, 2019.
 
 ******************************************
 Gaussian 16:  ES64L-G16RevC.02  7-Dec-2021
                 6-Mar-2026 
 ******************************************
 %chk=test_cis_td_r1.chk
 ----------------------------------------------------------------------
 #p nosymm scf=(maxconventionalcycles=200,xqc) wB97XD def2SVP td=(singl
 ets,nstates=10) pop=full iop(9/40=3) GFINPUT Integral=NoXCTest
 ----------------------------------------------------------------------
 1/38=1,172=1/1;
 2/12=2,15=1,17=6,18=5,40=1/2;
 3/5=43,7=101,11=9,24=10,25=1,30=1,47=8,74=-58/1,2,3,8;
 4//1;
 5/5=2,8=3,13=1,38=5,85=200/2,8;
 8/6=1,10=1,108=10/1;
 9/40=3,41=10,42=1,48=1,70=2/14;
 6/7=3/1;
 99/5=1,9=1/99;
 Leave Link    1 at Fri Mar  6 17:31:51 2026, MaxMem=           0 cpu:               0.0 elap:               0.1
 (Enter /prod/precompiled/gaussian/16c2/g16/l101.exe)
 ----------
 Title Card
 ----------
 Symbolic Z-matrix:
 Charge =  0 Multiplicity = 1
 C                    -0.01827  -0.07629   0.55464 
 C                    -0.05308   0.06969   1.94372 
 Cl                   -0.67069  -1.23307   2.91777 
 C                     0.44702   1.21988   2.54791 
 C                     0.97055   2.24083   1.75756 
 C                     1.00292   2.10565   0.37001 
 C                     0.5131    0.95044  -0.23082 
 N                    -0.64582  -1.20092  -0.06526 
 N                     0.00899  -2.01369  -0.72258 
 C                     1.43749  -1.96907  -0.73991 
 C                     2.11863  -1.7445   -1.93892 
 Cl                    1.21318  -1.30406  -3.35813 
 C                     3.5078   -1.82     -1.98948 
 C                     4.22227  -2.13955  -0.83683 
 C                     3.54941  -2.37166   0.36236 
 C                     2.1619   -2.28441   0.41302 
 H                     0.42385   1.30392   3.63527 
 H                     1.35542   3.14534   2.23196 
 H                     1.4135    2.90382  -0.25098 
 H                     0.52813   0.83001  -1.31633 
 H                     4.01834  -1.62457  -2.93348 
 H                     5.31089  -2.20586  -0.87933 
 H                     4.1073   -2.62131   1.26665 
 H                     1.61939  -2.46658   1.34338 
 
 ITRead=  0  0  0  0  0  0  0  0  0  0  0  0  0  0  0  0  0  0  0  0
 ITRead=  0  0  0  0
 MicOpt= -1 -1 -1 -1 -1 -1 -1 -1 -1 -1 -1 -1 -1 -1 -1 -1 -1 -1 -1 -1
 MicOpt= -1 -1 -1 -1
 NAtoms=     24 NQM=       24 NQMF=       0 NMMI=      0 NMMIF=      0
                NMic=       0 NMicF=      0.
                    Isotopes and Nuclear Properties:
 (Nuclear quadrupole moments (NQMom) in fm**2, nuclear magnetic moments (NMagM)
  in nuclear magnetons)

  Atom         1           2           3           4           5           6           7           8           9          10
 IAtWgt=          12          12          35          12          12          12          12          14          14          12
 AtmWgt=  12.0000000  12.0000000  34.9688527  12.0000000  12.0000000  12.0000000  12.0000000  14.0030740  14.0030740  12.0000000
 NucSpn=           0           0           3           0           0           0           0           2           2           0
 AtZEff=  -0.0000000  -0.0000000  -0.0000000  -0.0000000  -0.0000000  -0.0000000  -0.0000000  -0.0000000  -0.0000000  -0.0000000
 NQMom=    0.0000000   0.0000000  -8.1650000   0.0000000   0.0000000   0.0000000   0.0000000   2.0440000   2.0440000   0.0000000
 NMagM=    0.0000000   0.0000000   0.8218740   0.0000000   0.0000000   0.0000000   0.0000000   0.4037610   0.4037610   0.0000000
 AtZNuc=   6.0000000   6.0000000  17.0000000   6.0000000   6.0000000   6.0000000   6.0000000   7.0000000   7.0000000   6.0000000

  Atom        11          12          13          14          15          16          17          18          19          20
 IAtWgt=          12          35          12          12          12          12           1           1           1           1
 AtmWgt=  12.0000000  34.9688527  12.0000000  12.0000000  12.0000000  12.0000000   1.0078250   1.0078250   1.0078250   1.0078250
 NucSpn=           0           3           0           0           0           0           1           1           1           1
 AtZEff=  -0.0000000  -0.0000000  -0.0000000  -0.0000000  -0.0000000  -0.0000000  -0.0000000  -0.0000000  -0.0000000  -0.0000000
 NQMom=    0.0000000  -8.1650000   0.0000000   0.0000000   0.0000000   0.0000000   0.0000000   0.0000000   0.0000000   0.0000000
 NMagM=    0.0000000   0.8218740   0.0000000   0.0000000   0.0000000   0.0000000   2.7928460   2.7928460   2.7928460   2.7928460
 AtZNuc=   6.0000000  17.0000000   6.0000000   6.0000000   6.0000000   6.0000000   1.0000000   1.0000000   1.0000000   1.0000000

  Atom        21          22          23          24
 IAtWgt=           1           1           1           1
 AtmWgt=   1.0078250   1.0078250   1.0078250   1.0078250
 NucSpn=           1           1           1           1
 AtZEff=  -0.0000000  -0.0000000  -0.0000000  -0.0000000
 NQMom=    0.0000000   0.0000000   0.0000000   0.0000000
 NMagM=    2.7928460   2.7928460   2.7928460   2.7928460
 AtZNuc=   1.0000000   1.0000000   1.0000000   1.0000000
 Leave Link  101 at Fri Mar  6 17:31:51 2026, MaxMem=   104857600 cpu:               0.0 elap:               0.1
 (Enter /prod/precompiled/gaussian/16c2/g16/l202.exe)
                          Input orientation:                          
 ---------------------------------------------------------------------
 Center     Atomic      Atomic             Coordinates (Angstroms)
 Number     Number       Type             X           Y           Z
 ---------------------------------------------------------------------
      1          6           0       -0.018265   -0.076286    0.554644
      2          6           0       -0.053084    0.069688    1.943717
      3         17           0       -0.670690   -1.233069    2.917769
      4          6           0        0.447016    1.219884    2.547909
      5          6           0        0.970545    2.240828    1.757560
      6          6           0        1.002915    2.105650    0.370007
      7          6           0        0.513099    0.950442   -0.230821
      8          7           0       -0.645815   -1.200923   -0.065258
      9          7           0        0.008986   -2.013691   -0.722576
     10          6           0        1.437487   -1.969067   -0.739905
     11          6           0        2.118625   -1.744501   -1.938918
     12         17           0        1.213175   -1.304060   -3.358134
     13          6           0        3.507795   -1.820002   -1.989481
     14          6           0        4.222269   -2.139548   -0.836832
     15          6           0        3.549410   -2.371657    0.362361
     16          6           0        2.161897   -2.284412    0.413015
     17          1           0        0.423850    1.303924    3.635274
     18          1           0        1.355424    3.145336    2.231960
     19          1           0        1.413501    2.903822   -0.250978
     20          1           0        0.528126    0.830014   -1.316327
     21          1           0        4.018336   -1.624566   -2.933484
     22          1           0        5.310891   -2.205864   -0.879326
     23          1           0        4.107302   -2.621312    1.266646
     24          1           0        1.619392   -2.466578    1.343382
 ---------------------------------------------------------------------
                    Distance matrix (angstroms):
                    1          2          3          4          5
     1  C    0.000000
     2  C    1.397156   0.000000
     3  Cl   2.710750   1.739940   0.000000
     4  C    2.422736   1.392156   2.720853   0.000000
     5  C    2.791732   2.407555   4.013440   1.393220   0.000000
     6  C    2.416142   2.781517   4.520961   2.415960   1.394498
     7  C    1.397667   2.413484   4.010324   2.792545   2.414128
     8  N    1.429303   2.449850   2.983304   3.726020   4.216745
     9  N    2.320683   3.384293   3.784632   4.619951   5.017629
    10  C    2.716191   3.685126   4.285403   4.686167   4.917172
    11  C    3.683353   4.804420   5.623989   5.631472   5.555617
    12  Cl   4.281788   5.621407   6.552934   6.468279   6.228597
    13  C    4.684679   5.632125   6.471888   6.260765   6.080156
    14  C    4.916847   5.557951   6.233761   6.082334   6.040883
    15  C    4.246646   4.630207   5.063175   5.225001   5.465541
    16  C    3.106282   3.576447   3.924623   4.447323   4.868770
    17  H    3.404516   2.147596   2.854674   1.090854   2.168519
    18  H    3.883202   3.395083   4.872977   2.152300   1.091477
    19  H    3.402943   3.872967   5.612368   3.406392   2.161017
    20  H    2.149524   3.397615   4.860148   3.884700   3.410999
    21  H    5.555030   6.575260   7.508488   7.133785   6.799720
    22  H    5.915342   6.474561   7.151473   6.865782   6.750173
    23  H    4.899429   5.000872   5.242388   5.458399   5.806948
    24  H    3.002919   3.096809   3.040512   4.051586   4.769928
                    6          7          8          9         10
     6  C    0.000000
     7  C    1.391194   0.000000
     8  N    3.720375   2.449258   0.000000
     9  N    4.376140   3.046644   1.233460   0.000000
    10  C    4.245477   3.104383   2.320634   1.429303   0.000000
    11  C    4.625971   3.571838   3.383520   2.450006   1.397144
    12  Cl   5.056616   3.918287   3.782792   2.983255   2.710659
    13  C    5.220378   4.442572   4.619347   3.726155   2.422774
    14  C    5.462820   4.865514   5.017428   4.216711   2.791679
    15  C    5.150823   4.539536   4.376458   3.720192   2.416048
    16  C    4.540675   3.687457   3.047284   2.449057   1.397654
    17  H    3.411752   3.883247   4.594821   5.492680   5.557168
    18  H    2.161499   3.404756   5.307743   6.095715   5.915728
    19  H    1.091459   2.151005   4.596108   5.135854   4.897415
    20  H    2.167117   1.092269   2.658574   2.951051   2.999009
    21  H    5.824116   5.120717   5.491857   4.595043   3.404593
    22  H    6.221627   5.779415   6.095487   5.307702   3.883139
    23  H    5.725849   5.283761   5.136496   4.595911   3.402879
    24  H    4.715164   3.921482   2.952509   2.658326   2.149579
                   11         12         13         14         15
    11  C    0.000000
    12  Cl   1.740116   0.000000
    13  C    1.392139   2.721156   0.000000
    14  C    2.407483   4.013683   1.393263   0.000000
    15  C    2.781430   4.521044   2.416033   1.394517   0.000000
    16  C    2.413496   4.010328   2.792688   2.414174   1.391176
    17  H    6.575468   7.505489   7.134949   6.803324   5.830178
    18  H    6.472187   7.146084   6.863516   6.750280   6.224644
    19  H    4.995323   5.234579   5.451878   5.802412   5.724419
    20  H    3.089569   3.031920   4.044026   4.763917   4.711353
    21  H    2.147661   2.855167   1.090866   2.168581   3.411837
    22  H    3.395019   4.873296   2.152322   1.091468   2.161502
    23  H    3.872890   5.612461   3.406445   2.161003   1.091468
    24  H    3.397664   4.860115   3.884855   3.411048   2.167114
                   16         17         18         19         20
    16  C    0.000000
    17  H    5.126394   0.000000
    18  H    5.782830   2.495580   0.000000
    19  H    5.283820   4.317643   2.495332   0.000000
    20  H    3.919117   4.975321   4.316883   2.493900   0.000000
    21  H    3.883403   8.040209   7.518303   5.872589   4.563083
    22  H    3.404773   7.522193   7.345826   6.457040   5.681757
    23  H    2.150997   5.880960   6.462112   6.331418   5.603026
    24  H    1.092282   4.571518   5.687955   5.605852   4.374064
                   21         22         23         24
    21  H    0.000000
    22  H    2.495630   0.000000
    23  H    4.317697   2.495279   0.000000
    24  H    4.975490   4.316893   2.493898   0.000000
 Symmetry turned off by external request.
 Stoichiometry    C12H8Cl2N2
 Framework group  C1[X(C12H8Cl2N2)]
 Deg. of freedom    66
 Full point group                 C1      NOp   1
 Rotational constants (GHZ):           0.6788656           0.3081521           0.2923417
 Leave Link  202 at Fri Mar  6 17:31:52 2026, MaxMem=   104857600 cpu:               0.0 elap:               0.0
 (Enter /prod/precompiled/gaussian/16c2/g16/l301.exe)
 Standard basis: def2SVP (5D, 7F)
 Ernie: Thresh=  0.10000D-02 Tol=  0.10000D-05 Strict=F.
 AO basis set in the form of general basis input (Overlap normalization):
      1 0
 S   5 1.00       0.000000000000
      0.1238401694D+04  0.5517365048D-02
      0.1862900499D+03  0.4108882856D-01
      0.4225117635D+02  0.1822538213D+00
      0.1167655793D+02  0.4682845944D+00
      0.3593050648D+01  0.4457581734D+00
 S   1 1.00       0.000000000000
      0.4024514736D+00  0.1000000000D+01
 S   1 1.00       0.000000000000
      0.1309018267D+00  0.1000000000D+01
 P   3 1.00       0.000000000000
      0.9468097062D+01  0.5688833201D-01
      0.2010354514D+01  0.3129405934D+00
      0.5477100471D+00  0.7606501651D+00
 P   1 1.00       0.000000000000
      0.1526861379D+00  0.1000000000D+01
 D   1 1.00       0.000000000000
      0.8000000000D+00  0.1000000000D+01
 ****
      2 0
 S   5 1.00       0.000000000000
      0.1238401694D+04  0.5517365048D-02
      0.1862900499D+03  0.4108882856D-01
      0.4225117635D+02  0.1822538213D+00
      0.1167655793D+02  0.4682845944D+00
      0.3593050648D+01  0.4457581734D+00
 S   1 1.00       0.000000000000
      0.4024514736D+00  0.1000000000D+01
 S   1 1.00       0.000000000000
      0.1309018267D+00  0.1000000000D+01
 P   3 1.00       0.000000000000
      0.9468097062D+01  0.5688833201D-01
      0.2010354514D+01  0.3129405934D+00
      0.5477100471D+00  0.7606501651D+00
 P   1 1.00       0.000000000000
      0.1526861379D+00  0.1000000000D+01
 D   1 1.00       0.000000000000
      0.8000000000D+00  0.1000000000D+01
 ****
      3 0
 S   5 1.00       0.000000000000
      0.1044982757D+05  0.5426595379D-02
      0.1571736522D+04  0.4062637813D-01
      0.3571206552D+03  0.1835974785D+00
      0.1002518594D+03  0.4743894877D+00
      0.3081272755D+02  0.4373518110D+00
 S   3 1.00       0.000000000000
      0.5192378943D+02 -0.9275415485D-01
      0.5704576098D+01  0.5638082554D+00
      0.2350837681D+01  0.5036704463D+00
 S   1 1.00       0.000000000000
      0.4460512467D+00  0.1000000000D+01
 S   1 1.00       0.000000000000
      0.1684885619D+00  0.1000000000D+01
 P   5 1.00       0.000000000000
      0.3076679057D+03 -0.8879702559D-02
      0.7210201552D+02 -0.6428407172D-01
      0.2253268026D+02 -0.2428873974D+00
      0.7899176544D+01 -0.4834083637D+00
      0.2876726832D+01 -0.3895256388D+00
 P   1 1.00       0.000000000000
      0.7745936396D+00  0.1000000000D+01
 P   1 1.00       0.000000000000
      0.2103769970D+00  0.1000000000D+01
 D   1 1.00       0.000000000000
      0.6500000000D+00  0.1000000000D+01
 ****
      4 0
 S   5 1.00       0.000000000000
      0.1238401694D+04  0.5517365048D-02
      0.1862900499D+03  0.4108882856D-01
      0.4225117635D+02  0.1822538213D+00
      0.1167655793D+02  0.4682845944D+00
      0.3593050648D+01  0.4457581734D+00
 S   1 1.00       0.000000000000
      0.4024514736D+00  0.1000000000D+01
 S   1 1.00       0.000000000000
      0.1309018267D+00  0.1000000000D+01
 P   3 1.00       0.000000000000
      0.9468097062D+01  0.5688833201D-01
      0.2010354514D+01  0.3129405934D+00
      0.5477100471D+00  0.7606501651D+00
 P   1 1.00       0.000000000000
      0.1526861379D+00  0.1000000000D+01
 D   1 1.00       0.000000000000
      0.8000000000D+00  0.1000000000D+01
 ****
      5 0
 S   5 1.00       0.000000000000
      0.1238401694D+04  0.5517365048D-02
      0.1862900499D+03  0.4108882856D-01
      0.4225117635D+02  0.1822538213D+00
      0.1167655793D+02  0.4682845944D+00
      0.3593050648D+01  0.4457581734D+00
 S   1 1.00       0.000000000000
      0.4024514736D+00  0.1000000000D+01
 S   1 1.00       0.000000000000
      0.1309018267D+00  0.1000000000D+01
 P   3 1.00       0.000000000000
      0.9468097062D+01  0.5688833201D-01
      0.2010354514D+01  0.3129405934D+00
      0.5477100471D+00  0.7606501651D+00
 P   1 1.00       0.000000000000
      0.1526861379D+00  0.1000000000D+01
 D   1 1.00       0.000000000000
      0.8000000000D+00  0.1000000000D+01
 ****
      6 0
 S   5 1.00       0.000000000000
      0.1238401694D+04  0.5517365048D-02
      0.1862900499D+03  0.4108882856D-01
      0.4225117635D+02  0.1822538213D+00
      0.1167655793D+02  0.4682845944D+00
      0.3593050648D+01  0.4457581734D+00
 S   1 1.00       0.000000000000
      0.4024514736D+00  0.1000000000D+01
 S   1 1.00       0.000000000000
      0.1309018267D+00  0.1000000000D+01
 P   3 1.00       0.000000000000
      0.9468097062D+01  0.5688833201D-01
      0.2010354514D+01  0.3129405934D+00
      0.5477100471D+00  0.7606501651D+00
 P   1 1.00       0.000000000000
      0.1526861379D+00  0.1000000000D+01
 D   1 1.00       0.000000000000
      0.8000000000D+00  0.1000000000D+01
 ****
      7 0
 S   5 1.00       0.000000000000
      0.1238401694D+04  0.5517365048D-02
      0.1862900499D+03  0.4108882856D-01
      0.4225117635D+02  0.1822538213D+00
      0.1167655793D+02  0.4682845944D+00
      0.3593050648D+01  0.4457581734D+00
 S   1 1.00       0.000000000000
      0.4024514736D+00  0.1000000000D+01
 S   1 1.00       0.000000000000
      0.1309018267D+00  0.1000000000D+01
 P   3 1.00       0.000000000000
      0.9468097062D+01  0.5688833201D-01
      0.2010354514D+01  0.3129405934D+00
      0.5477100471D+00  0.7606501651D+00
 P   1 1.00       0.000000000000
      0.1526861379D+00  0.1000000000D+01
 D   1 1.00       0.000000000000
      0.8000000000D+00  0.1000000000D+01
 ****
      8 0
 S   5 1.00       0.000000000000
      0.1712841585D+04 -0.5447799580D-02
      0.2576481268D+03 -0.4062717463D-01
      0.5845824585D+02 -0.1811196225D+00
      0.1619836791D+02 -0.4684397556D+00
      0.5005260081D+01 -0.4461684629D+00
 S   1 1.00       0.000000000000
      0.5873185657D+00  0.1000000000D+01
 S   1 1.00       0.000000000000
      0.1876459225D+00  0.1000000000D+01
 P   3 1.00       0.000000000000
      0.1357147023D+02 -0.5884811697D-01
      0.2925737287D+01 -0.3202462476D+00
      0.7992775075D+00 -0.7532822652D+00
 P   1 1.00       0.000000000000
      0.2195434803D+00  0.1000000000D+01
 D   1 1.00       0.000000000000
      0.1000000000D+01  0.1000000000D+01
 ****
      9 0
 S   5 1.00       0.000000000000
      0.1712841585D+04 -0.5447799580D-02
      0.2576481268D+03 -0.4062717463D-01
      0.5845824585D+02 -0.1811196225D+00
      0.1619836791D+02 -0.4684397556D+00
      0.5005260081D+01 -0.4461684629D+00
 S   1 1.00       0.000000000000
      0.5873185657D+00  0.1000000000D+01
 S   1 1.00       0.000000000000
      0.1876459225D+00  0.1000000000D+01
 P   3 1.00       0.000000000000
      0.1357147023D+02 -0.5884811697D-01
      0.2925737287D+01 -0.3202462476D+00
      0.7992775075D+00 -0.7532822652D+00
 P   1 1.00       0.000000000000
      0.2195434803D+00  0.1000000000D+01
 D   1 1.00       0.000000000000
      0.1000000000D+01  0.1000000000D+01
 ****
     10 0
 S   5 1.00       0.000000000000
      0.1238401694D+04  0.5517365048D-02
      0.1862900499D+03  0.4108882856D-01
      0.4225117635D+02  0.1822538213D+00
      0.1167655793D+02  0.4682845944D+00
      0.3593050648D+01  0.4457581734D+00
 S   1 1.00       0.000000000000
      0.4024514736D+00  0.1000000000D+01
 S   1 1.00       0.000000000000
      0.1309018267D+00  0.1000000000D+01
 P   3 1.00       0.000000000000
      0.9468097062D+01  0.5688833201D-01
      0.2010354514D+01  0.3129405934D+00
      0.5477100471D+00  0.7606501651D+00
 P   1 1.00       0.000000000000
      0.1526861379D+00  0.1000000000D+01
 D   1 1.00       0.000000000000
      0.8000000000D+00  0.1000000000D+01
 ****
     11 0
 S   5 1.00       0.000000000000
      0.1238401694D+04  0.5517365048D-02
      0.1862900499D+03  0.4108882856D-01
      0.4225117635D+02  0.1822538213D+00
      0.1167655793D+02  0.4682845944D+00
      0.3593050648D+01  0.4457581734D+00
 S   1 1.00       0.000000000000
      0.4024514736D+00  0.1000000000D+01
 S   1 1.00       0.000000000000
      0.1309018267D+00  0.1000000000D+01
 P   3 1.00       0.000000000000
      0.9468097062D+01  0.5688833201D-01
      0.2010354514D+01  0.3129405934D+00
      0.5477100471D+00  0.7606501651D+00
 P   1 1.00       0.000000000000
      0.1526861379D+00  0.1000000000D+01
 D   1 1.00       0.000000000000
      0.8000000000D+00  0.1000000000D+01
 ****
     12 0
 S   5 1.00       0.000000000000
      0.1044982757D+05  0.5426595379D-02
      0.1571736522D+04  0.4062637813D-01
      0.3571206552D+03  0.1835974785D+00
      0.1002518594D+03  0.4743894877D+00
      0.3081272755D+02  0.4373518110D+00
 S   3 1.00       0.000000000000
      0.5192378943D+02 -0.9275415485D-01
      0.5704576098D+01  0.5638082554D+00
      0.2350837681D+01  0.5036704463D+00
 S   1 1.00       0.000000000000
      0.4460512467D+00  0.1000000000D+01
 S   1 1.00       0.000000000000
      0.1684885619D+00  0.1000000000D+01
 P   5 1.00       0.000000000000
      0.3076679057D+03 -0.8879702559D-02
      0.7210201552D+02 -0.6428407172D-01
      0.2253268026D+02 -0.2428873974D+00
      0.7899176544D+01 -0.4834083637D+00
      0.2876726832D+01 -0.3895256388D+00
 P   1 1.00       0.000000000000
      0.7745936396D+00  0.1000000000D+01
 P   1 1.00       0.000000000000
      0.2103769970D+00  0.1000000000D+01
 D   1 1.00       0.000000000000
      0.6500000000D+00  0.1000000000D+01
 ****
     13 0
 S   5 1.00       0.000000000000
      0.1238401694D+04  0.5517365048D-02
      0.1862900499D+03  0.4108882856D-01
      0.4225117635D+02  0.1822538213D+00
      0.1167655793D+02  0.4682845944D+00
      0.3593050648D+01  0.4457581734D+00
 S   1 1.00       0.000000000000
      0.4024514736D+00  0.1000000000D+01
 S   1 1.00       0.000000000000
      0.1309018267D+00  0.1000000000D+01
 P   3 1.00       0.000000000000
      0.9468097062D+01  0.5688833201D-01
      0.2010354514D+01  0.3129405934D+00
      0.5477100471D+00  0.7606501651D+00
 P   1 1.00       0.000000000000
      0.1526861379D+00  0.1000000000D+01
 D   1 1.00       0.000000000000
      0.8000000000D+00  0.1000000000D+01
 ****
     14 0
 S   5 1.00       0.000000000000
      0.1238401694D+04  0.5517365048D-02
      0.1862900499D+03  0.4108882856D-01
      0.4225117635D+02  0.1822538213D+00
      0.1167655793D+02  0.4682845944D+00
      0.3593050648D+01  0.4457581734D+00
 S   1 1.00       0.000000000000
      0.4024514736D+00  0.1000000000D+01
 S   1 1.00       0.000000000000
      0.1309018267D+00  0.1000000000D+01
 P   3 1.00       0.000000000000
      0.9468097062D+01  0.5688833201D-01
      0.2010354514D+01  0.3129405934D+00
      0.5477100471D+00  0.7606501651D+00
 P   1 1.00       0.000000000000
      0.1526861379D+00  0.1000000000D+01
 D   1 1.00       0.000000000000
      0.8000000000D+00  0.1000000000D+01
 ****
     15 0
 S   5 1.00       0.000000000000
      0.1238401694D+04  0.5517365048D-02
      0.1862900499D+03  0.4108882856D-01
      0.4225117635D+02  0.1822538213D+00
      0.1167655793D+02  0.4682845944D+00
      0.3593050648D+01  0.4457581734D+00
 S   1 1.00       0.000000000000
      0.4024514736D+00  0.1000000000D+01
 S   1 1.00       0.000000000000
      0.1309018267D+00  0.1000000000D+01
 P   3 1.00       0.000000000000
      0.9468097062D+01  0.5688833201D-01
      0.2010354514D+01  0.3129405934D+00
      0.5477100471D+00  0.7606501651D+00
 P   1 1.00       0.000000000000
      0.1526861379D+00  0.1000000000D+01
 D   1 1.00       0.000000000000
      0.8000000000D+00  0.1000000000D+01
 ****
     16 0
 S   5 1.00       0.000000000000
      0.1238401694D+04  0.5517365048D-02
      0.1862900499D+03  0.4108882856D-01
      0.4225117635D+02  0.1822538213D+00
      0.1167655793D+02  0.4682845944D+00
      0.3593050648D+01  0.4457581734D+00
 S   1 1.00       0.000000000000
      0.4024514736D+00  0.1000000000D+01
 S   1 1.00       0.000000000000
      0.1309018267D+00  0.1000000000D+01
 P   3 1.00       0.000000000000
      0.9468097062D+01  0.5688833201D-01
      0.2010354514D+01  0.3129405934D+00
      0.5477100471D+00  0.7606501651D+00
 P   1 1.00       0.000000000000
      0.1526861379D+00  0.1000000000D+01
 D   1 1.00       0.000000000000
      0.8000000000D+00  0.1000000000D+01
 ****
     17 0
 S   3 1.00       0.000000000000
      0.1301070100D+02  0.3348548481D-01
      0.1962257200D+01  0.2347218709D+00
      0.4445379600D+00  0.8137702853D+00
 S   1 1.00       0.000000000000
      0.1219496200D+00  0.1000000000D+01
 P   1 1.00       0.000000000000
      0.8000000000D+00  0.1000000000D+01
 ****
     18 0
 S   3 1.00       0.000000000000
      0.1301070100D+02  0.3348548481D-01
      0.1962257200D+01  0.2347218709D+00
      0.4445379600D+00  0.8137702853D+00
 S   1 1.00       0.000000000000
      0.1219496200D+00  0.1000000000D+01
 P   1 1.00       0.000000000000
      0.8000000000D+00  0.1000000000D+01
 ****
     19 0
 S   3 1.00       0.000000000000
      0.1301070100D+02  0.3348548481D-01
      0.1962257200D+01  0.2347218709D+00
      0.4445379600D+00  0.8137702853D+00
 S   1 1.00       0.000000000000
      0.1219496200D+00  0.1000000000D+01
 P   1 1.00       0.000000000000
      0.8000000000D+00  0.1000000000D+01
 ****
     20 0
 S   3 1.00       0.000000000000
      0.1301070100D+02  0.3348548481D-01
      0.1962257200D+01  0.2347218709D+00
      0.4445379600D+00  0.8137702853D+00
 S   1 1.00       0.000000000000
      0.1219496200D+00  0.1000000000D+01
 P   1 1.00       0.000000000000
      0.8000000000D+00  0.1000000000D+01
 ****
     21 0
 S   3 1.00       0.000000000000
      0.1301070100D+02  0.3348548481D-01
      0.1962257200D+01  0.2347218709D+00
      0.4445379600D+00  0.8137702853D+00
 S   1 1.00       0.000000000000
      0.1219496200D+00  0.1000000000D+01
 P   1 1.00       0.000000000000
      0.8000000000D+00  0.1000000000D+01
 ****
     22 0
 S   3 1.00       0.000000000000
      0.1301070100D+02  0.3348548481D-01
      0.1962257200D+01  0.2347218709D+00
      0.4445379600D+00  0.8137702853D+00
 S   1 1.00       0.000000000000
      0.1219496200D+00  0.1000000000D+01
 P   1 1.00       0.000000000000
      0.8000000000D+00  0.1000000000D+01
 ****
     23 0
 S   3 1.00       0.000000000000
      0.1301070100D+02  0.3348548481D-01
      0.1962257200D+01  0.2347218709D+00
      0.4445379600D+00  0.8137702853D+00
 S   1 1.00       0.000000000000
      0.1219496200D+00  0.1000000000D+01
 P   1 1.00       0.000000000000
      0.8000000000D+00  0.1000000000D+01
 ****
     24 0
 S   3 1.00       0.000000000000
      0.1301070100D+02  0.3348548481D-01
      0.1962257200D+01  0.2347218709D+00
      0.4445379600D+00  0.8137702853D+00
 S   1 1.00       0.000000000000
      0.1219496200D+00  0.1000000000D+01
 P   1 1.00       0.000000000000
      0.8000000000D+00  0.1000000000D+01
 ****

   272 basis functions,   480 primitive gaussians,   288 cartesian basis functions
    64 alpha electrons       64 beta electrons
       nuclear repulsion energy      1240.9157905442 Hartrees.
 IExCor= 4639 DFT=T Ex+Corr=wB97XD ExCW=0 ScaHFX=  1.000000
 ScaDFX=  1.000000  1.000000  1.000000  1.000000 ScalE2=  1.000000  1.000000
 IRadAn=      5 IRanWt=     -1 IRanGd=            0 ICorTp=0 IEmpDi=121
 HFx  wShort=  0.000000 wLong=  0.200000 cFull=  0.222036 cShort=  0.000000 cLong=  0.777964
 DFx  wShort=  0.000000 wLong=  0.200000 cFull=  0.000000 cShort=  0.000000 cLong=  1.000000
 NAtoms=   24 NActive=   24 NUniq=   24 SFac= 1.00D+00 NAtFMM=   60 NAOKFM=F Big=F
 Integral buffers will be    131072 words long.
 Raffenetti 1 integral format.
 Two-electron integral symmetry is turned off.
 R6Disp:  Grimme-D2 Dispersion energy=       -0.0171247649 Hartrees.
 Nuclear repulsion after empirical dispersion term =     1240.8986657792 Hartrees.
 Leave Link  301 at Fri Mar  6 17:31:52 2026, MaxMem=   104857600 cpu:               0.0 elap:               0.1
 (Enter /prod/precompiled/gaussian/16c2/g16/l302.exe)
 NPDir=0 NMtPBC=     1 NCelOv=     1 NCel=       1 NClECP=     1 NCelD=      1
         NCelK=      1 NCelE2=     1 NClLst=     1 CellRange=     0.0.
 One-electron integrals computed using PRISM.
   1 Symmetry operations used in ECPInt.
 ECPInt:  NShTT=    7750 NPrTT=   30142 LenC2=    7388 LenP2D=   20350.
 LDataN:  DoStor=T MaxTD1= 4 Len=   56
 NBasis=   272 RedAO= T EigKep=  2.21D-04  NBF=   272
 NBsUse=   272 1.00D-06 EigRej= -1.00D+00 NBFU=   272
 Precomputing XC quadrature grid using
 IXCGrd= 4 IRadAn=           5 IRanWt=          -1 IRanGd=           0 AccXCQ= 0.00D+00.
 Generated NRdTot=       0 NPtTot=           0 NUsed=           0 NTot=          32
 NSgBfM=   286   286   286   286   286 MxSgAt=    24 MxSgA2=    24.
 Leave Link  302 at Fri Mar  6 17:31:53 2026, MaxMem=   104857600 cpu:               0.4 elap:               0.5
 (Enter /prod/precompiled/gaussian/16c2/g16/l303.exe)
 DipDrv:  MaxL=1.
 Leave Link  303 at Fri Mar  6 17:31:53 2026, MaxMem=   104857600 cpu:               0.0 elap:               0.0
 (Enter /prod/precompiled/gaussian/16c2/g16/l308.exe)
 Leave Link  308 at Fri Mar  6 17:31:53 2026, MaxMem=   104857600 cpu:               0.0 elap:               0.1
 (Enter /prod/precompiled/gaussian/16c2/g16/l401.exe)
 ExpMin= 1.22D-01 ExpMax= 1.04D+04 ExpMxC= 1.57D+03 IAcc=3 IRadAn=         5 AccDes= 0.00D+00
 Harris functional with IExCor= 4639 and IRadAn=       5 diagonalized for initial guess.
 HarFok:  IExCor= 4639 AccDes= 0.00D+00 IRadAn=         5 IDoV= 1 UseB2=F ITyADJ=14
 ICtDFT=  3500011 ScaDFX=  1.000000  1.000000  1.000000  1.000000
 FoFCou: FMM=F IPFlag=           8 FMFlag=      100000 FMFlg1=           0
         NFxFlg=           0 DoJE=T BraDBF=F KetDBF=T FulRan=T
         wScrn=  0.000000 ICntrl=       500 IOpCl=  0 I1Cent=   200000004 NGrid=           0
         NMat0=    1 NMatS0=      1 NMatT0=    0 NMatD0=    1 NMtDS0=    0 NMtDT0=    0
 Symmetry not used in FoFCou.
 Harris En= -1450.80622493309    
 JPrj=0 DoOrth=F DoCkMO=F.
 Leave Link  401 at Fri Mar  6 17:31:57 2026, MaxMem=   104857600 cpu:               3.7 elap:               3.8
 (Enter /prod/precompiled/gaussian/16c2/g16/l502.exe)
 Two-electron integral symmetry not used.
 Closed shell SCF:
 Using DIIS extrapolation, IDIIS=  1040.
 NGot=   104857600 LenX=   104687130 LenY=   104603745
 Requested convergence on RMS density matrix=1.00D-08 within 200 cycles.
 Requested convergence on MAX density matrix=1.00D-06.
 Requested convergence on             energy=1.00D-06.
 No special actions if energy rises.
 Fock matrices will be formed incrementally for  20 cycles.
 Integral accuracy reduced to 1.0D-05 until final iterations.

 Cycle   1  Pass 0  IDiag  1:
 FoFJK:  IHMeth= 1 ICntrl=       0 DoSepK=T KAlg= 0 I1Cent=           0 FoldK=F
 IRaf=         1 NMat=       1 IRICut=       1 DoRegI=T DoRafI=F ISym2E= 0 IDoP0=0 IntGTp=1.
 FoFCou: FMM=F IPFlag=           8 FMFlag=      100000 FMFlg1=           0
         NFxFlg=           0 DoJE=T BraDBF=F KetDBF=F FulRan=T
         wScrn=  0.000000 ICntrl=       500 IOpCl=  0 I1Cent=           0 NGrid=           0
         NMat0=    1 NMatS0=      1 NMatT0=    0 NMatD0=    1 NMtDS0=    0 NMtDT0=    0
 Symmetry not used in FoFCou.
 E= -1490.59637496027    
 DIIS: error= 5.58D-02 at cycle   1 NSaved=   1.
 NSaved= 1 IEnMin= 1 EnMin= -1490.59637496027     IErMin= 1 ErrMin= 5.58D-02
 ErrMax= 5.58D-02  0.00D+00 EMaxC= 1.00D-01 BMatC= 7.31D-01 BMatP= 7.31D-01
 IDIUse=3 WtCom= 4.42D-01 WtEn= 5.58D-01
 Coeff-Com:  0.100D+01
 Coeff-En:   0.100D+01
 Coeff:      0.100D+01
 Gap=     0.399 Goal=   None    Shift=    0.000
 GapD=    0.399 DampG=1.000 DampE=0.500 DampFc=0.5000 IDamp=-1.
 Damping current iteration by 5.00D-01
 RMSDP=6.41D-03 MaxDP=2.74D-01              OVMax= 2.18D-01

 Cycle   2  Pass 0  IDiag  1:
 RMSU=  3.16D-03    CP:  9.79D-01
 E= -1490.81247272509     Delta-E=       -0.216097764822 Rises=F Damp=T
 DIIS: error= 1.55D-02 at cycle   2 NSaved=   2.
 NSaved= 2 IEnMin= 2 EnMin= -1490.81247272509     IErMin= 2 ErrMin= 1.55D-02
 ErrMax= 1.55D-02  0.00D+00 EMaxC= 1.00D-01 BMatC= 9.13D-02 BMatP= 7.31D-01
 IDIUse=3 WtCom= 8.45D-01 WtEn= 1.55D-01
 Coeff-Com: -0.264D+00 0.126D+01
 Coeff-En:   0.000D+00 0.100D+01
 Coeff:     -0.223D+00 0.122D+01
 Gap=     0.399 Goal=   None    Shift=    0.000
 RMSDP=2.22D-03 MaxDP=6.58D-02 DE=-2.16D-01 OVMax= 1.62D-01

 Cycle   3  Pass 0  IDiag  1:
 RMSU=  2.08D-03    CP:  9.63D-01  1.21D+00
 E= -1491.00395457722     Delta-E=       -0.191481852128 Rises=F Damp=F
 DIIS: error= 7.79D-03 at cycle   3 NSaved=   3.
 NSaved= 3 IEnMin= 3 EnMin= -1491.00395457722     IErMin= 3 ErrMin= 7.79D-03
 ErrMax= 7.79D-03  0.00D+00 EMaxC= 1.00D-01 BMatC= 2.20D-02 BMatP= 9.13D-02
 IDIUse=3 WtCom= 9.22D-01 WtEn= 7.79D-02
 Coeff-Com: -0.173D+00 0.475D+00 0.698D+00
 Coeff-En:   0.000D+00 0.000D+00 0.100D+01
 Coeff:     -0.159D+00 0.438D+00 0.722D+00
 Gap=     0.322 Goal=   None    Shift=    0.000
 RMSDP=9.19D-04 MaxDP=1.99D-02 DE=-1.91D-01 OVMax= 5.88D-02

 Cycle   4  Pass 0  IDiag  1:
 RMSU=  6.80D-04    CP:  9.58D-01  1.36D+00  8.22D-01
 E= -1491.02670215292     Delta-E=       -0.022747575707 Rises=F Damp=F
 DIIS: error= 1.81D-03 at cycle   4 NSaved=   4.
 NSaved= 4 IEnMin= 4 EnMin= -1491.02670215292     IErMin= 4 ErrMin= 1.81D-03
 ErrMax= 1.81D-03  0.00D+00 EMaxC= 1.00D-01 BMatC= 2.12D-03 BMatP= 2.20D-02
 IDIUse=3 WtCom= 9.82D-01 WtEn= 1.81D-02
 Coeff-Com: -0.452D-01 0.930D-01 0.297D+00 0.655D+00
 Coeff-En:   0.000D+00 0.000D+00 0.000D+00 0.100D+01
 Coeff:     -0.444D-01 0.914D-01 0.292D+00 0.661D+00
 Gap=     0.296 Goal=   None    Shift=    0.000
 RMSDP=2.64D-04 MaxDP=7.33D-03 DE=-2.27D-02 OVMax= 1.45D-02

 Cycle   5  Pass 0  IDiag  1:
 RMSU=  1.54D-04    CP:  9.57D-01  1.36D+00  9.04D-01  8.12D-01
 E= -1491.02899753388     Delta-E=       -0.002295380959 Rises=F Damp=F
 DIIS: error= 6.32D-04 at cycle   5 NSaved=   5.
 NSaved= 5 IEnMin= 5 EnMin= -1491.02899753388     IErMin= 5 ErrMin= 6.32D-04
 ErrMax= 6.32D-04  0.00D+00 EMaxC= 1.00D-01 BMatC= 1.49D-04 BMatP= 2.12D-03
 IDIUse=3 WtCom= 9.94D-01 WtEn= 6.32D-03
 Coeff-Com: -0.690D-02 0.667D-02 0.816D-01 0.282D+00 0.637D+00
 Coeff-En:   0.000D+00 0.000D+00 0.000D+00 0.000D+00 0.100D+01
 Coeff:     -0.686D-02 0.663D-02 0.810D-01 0.280D+00 0.639D+00
 Gap=     0.296 Goal=   None    Shift=    0.000
 RMSDP=8.96D-05 MaxDP=1.85D-03 DE=-2.30D-03 OVMax= 5.08D-03

 Cycle   6  Pass 0  IDiag  1:
 RMSU=  6.94D-05    CP:  9.57D-01  1.36D+00  9.15D-01  8.74D-01  8.17D-01
 E= -1491.02920476217     Delta-E=       -0.000207228289 Rises=F Damp=F
 DIIS: error= 1.91D-04 at cycle   6 NSaved=   6.
 NSaved= 6 IEnMin= 6 EnMin= -1491.02920476217     IErMin= 6 ErrMin= 1.91D-04
 ErrMax= 1.91D-04  0.00D+00 EMaxC= 1.00D-01 BMatC= 1.66D-05 BMatP= 1.49D-04
 IDIUse=3 WtCom= 9.98D-01 WtEn= 1.91D-03
 Coeff-Com:  0.106D-01-0.229D-01-0.537D-01-0.983D-01 0.148D+00 0.102D+01
 Coeff-En:   0.000D+00 0.000D+00 0.000D+00 0.000D+00 0.000D+00 0.100D+01
 Coeff:      0.106D-01-0.229D-01-0.536D-01-0.981D-01 0.148D+00 0.102D+01
 Gap=     0.296 Goal=   None    Shift=    0.000
 RMSDP=5.20D-05 MaxDP=9.73D-04 DE=-2.07D-04 OVMax= 4.03D-03

 Cycle   7  Pass 0  IDiag  1:
 RMSU=  2.20D-05    CP:  9.56D-01  1.36D+00  9.26D-01  9.10D-01  1.01D+00
                    CP:  1.20D+00
 E= -1491.02925557378     Delta-E=       -0.000050811604 Rises=F Damp=F
 DIIS: error= 5.50D-05 at cycle   7 NSaved=   7.
 NSaved= 7 IEnMin= 7 EnMin= -1491.02925557378     IErMin= 7 ErrMin= 5.50D-05
 ErrMax= 5.50D-05  0.00D+00 EMaxC= 1.00D-01 BMatC= 1.60D-06 BMatP= 1.66D-05
 IDIUse=1 WtCom= 1.00D+00 WtEn= 0.00D+00
 Coeff-Com:  0.323D-02-0.603D-02-0.209D-01-0.531D-01-0.654D-02 0.302D+00
 Coeff-Com:  0.781D+00
 Coeff:      0.323D-02-0.603D-02-0.209D-01-0.531D-01-0.654D-02 0.302D+00
 Coeff:      0.781D+00
 Gap=     0.296 Goal=   None    Shift=    0.000
 RMSDP=1.16D-05 MaxDP=3.24D-04 DE=-5.08D-05 OVMax= 1.01D-03

 Cycle   8  Pass 0  IDiag  1:
 RMSU=  7.45D-06    CP:  9.56D-01  1.36D+00  9.27D-01  9.12D-01  1.04D+00
                    CP:  1.29D+00  1.15D+00
 E= -1491.02925945032     Delta-E=       -0.000003876542 Rises=F Damp=F
 DIIS: error= 2.46D-05 at cycle   8 NSaved=   8.
 NSaved= 8 IEnMin= 8 EnMin= -1491.02925945032     IErMin= 8 ErrMin= 2.46D-05
 ErrMax= 2.46D-05  0.00D+00 EMaxC= 1.00D-01 BMatC= 2.07D-07 BMatP= 1.60D-06
 IDIUse=1 WtCom= 1.00D+00 WtEn= 0.00D+00
 Coeff-Com: -0.156D-02 0.340D-02 0.715D-02 0.105D-01-0.223D-01-0.132D+00
 Coeff-Com:  0.882D-01 0.105D+01
 Coeff:     -0.156D-02 0.340D-02 0.715D-02 0.105D-01-0.223D-01-0.132D+00
 Coeff:      0.882D-01 0.105D+01
 Gap=     0.296 Goal=   None    Shift=    0.000
 RMSDP=6.37D-06 MaxDP=1.01D-04 DE=-3.88D-06 OVMax= 6.21D-04

 Initial convergence to 1.0D-05 achieved.  Increase integral accuracy.
 Cycle   9  Pass 1  IDiag  1:
 E= -1491.02923050642     Delta-E=        0.000028943901 Rises=F Damp=F
 DIIS: error= 6.52D-05 at cycle   1 NSaved=   1.
 NSaved= 1 IEnMin= 1 EnMin= -1491.02923050642     IErMin= 1 ErrMin= 6.52D-05
 ErrMax= 6.52D-05  0.00D+00 EMaxC= 1.00D-01 BMatC= 7.72D-07 BMatP= 7.72D-07
 IDIUse=1 WtCom= 1.00D+00 WtEn= 0.00D+00
 Coeff-Com:  0.100D+01
 Coeff:      0.100D+01
 Gap=     0.296 Goal=   None    Shift=    0.000
 RMSDP=6.37D-06 MaxDP=1.01D-04 DE= 2.89D-05 OVMax= 1.72D-04

 Cycle  10  Pass 1  IDiag  1:
 RMSU=  4.56D-05    CP:  1.00D+00
 E= -1491.02923121588     Delta-E=       -0.000000709464 Rises=F Damp=F
 DIIS: error= 5.73D-06 at cycle   2 NSaved=   2.
 NSaved= 2 IEnMin= 2 EnMin= -1491.02923121588     IErMin= 2 ErrMin= 5.73D-06
 ErrMax= 5.73D-06  0.00D+00 EMaxC= 1.00D-01 BMatC= 2.38D-08 BMatP= 7.72D-07
 IDIUse=1 WtCom= 1.00D+00 WtEn= 0.00D+00
 Coeff-Com: -0.104D-01 0.101D+01
 Coeff:     -0.104D-01 0.101D+01
 Gap=     0.296 Goal=   None    Shift=    0.000
 RMSDP=3.15D-06 MaxDP=4.72D-05 DE=-7.09D-07 OVMax= 9.46D-05

 Cycle  11  Pass 1  IDiag  1:
 RMSU=  1.54D-06    CP:  1.00D+00  1.06D+00
 E= -1491.02923125091     Delta-E=       -0.000000035030 Rises=F Damp=F
 DIIS: error= 6.13D-06 at cycle   3 NSaved=   3.
 NSaved= 3 IEnMin= 3 EnMin= -1491.02923125091     IErMin= 2 ErrMin= 5.73D-06
 ErrMax= 6.13D-06  0.00D+00 EMaxC= 1.00D-01 BMatC= 1.85D-08 BMatP= 2.38D-08
 IDIUse=1 WtCom= 1.00D+00 WtEn= 0.00D+00
 Coeff-Com: -0.304D-01 0.479D+00 0.551D+00
 Coeff:     -0.304D-01 0.479D+00 0.551D+00
 Gap=     0.296 Goal=   None    Shift=    0.000
 RMSDP=6.49D-07 MaxDP=2.12D-05 DE=-3.50D-08 OVMax= 3.10D-05

 Cycle  12  Pass 1  IDiag  1:
 RMSU=  6.07D-07    CP:  1.00D+00  1.06D+00  9.35D-01
 E= -1491.02923127118     Delta-E=       -0.000000020272 Rises=F Damp=F
 DIIS: error= 2.52D-06 at cycle   4 NSaved=   4.
 NSaved= 4 IEnMin= 4 EnMin= -1491.02923127118     IErMin= 4 ErrMin= 2.52D-06
 ErrMax= 2.52D-06  0.00D+00 EMaxC= 1.00D-01 BMatC= 1.85D-09 BMatP= 1.85D-08
 IDIUse=1 WtCom= 1.00D+00 WtEn= 0.00D+00
 Coeff-Com: -0.879D-02 0.344D-01 0.195D+00 0.780D+00
 Coeff:     -0.879D-02 0.344D-01 0.195D+00 0.780D+00
 Gap=     0.296 Goal=   None    Shift=    0.000
 RMSDP=3.35D-07 MaxDP=1.31D-05 DE=-2.03D-08 OVMax= 2.94D-05

 Cycle  13  Pass 1  IDiag  1:
 RMSU=  2.61D-07    CP:  1.00D+00  1.07D+00  1.06D+00  1.12D+00
 E= -1491.02923127568     Delta-E=       -0.000000004493 Rises=F Damp=F
 DIIS: error= 1.42D-06 at cycle   5 NSaved=   5.
 NSaved= 5 IEnMin= 5 EnMin= -1491.02923127568     IErMin= 5 ErrMin= 1.42D-06
 ErrMax= 1.42D-06  0.00D+00 EMaxC= 1.00D-01 BMatC= 7.00D-10 BMatP= 1.85D-09
 IDIUse=1 WtCom= 1.00D+00 WtEn= 0.00D+00
 Coeff-Com:  0.585D-02-0.150D+00-0.860D-01 0.412D+00 0.819D+00
 Coeff:      0.585D-02-0.150D+00-0.860D-01 0.412D+00 0.819D+00
 Gap=     0.296 Goal=   None    Shift=    0.000
 RMSDP=2.61D-07 MaxDP=7.10D-06 DE=-4.49D-09 OVMax= 2.61D-05

 Cycle  14  Pass 1  IDiag  1:
 RMSU=  1.50D-07    CP:  1.00D+00  1.07D+00  1.14D+00  1.38D+00  1.30D+00
 E= -1491.02923127779     Delta-E=       -0.000000002116 Rises=F Damp=F
 DIIS: error= 4.95D-07 at cycle   6 NSaved=   6.
 NSaved= 6 IEnMin= 6 EnMin= -1491.02923127779     IErMin= 6 ErrMin= 4.95D-07
 ErrMax= 4.95D-07  0.00D+00 EMaxC= 1.00D-01 BMatC= 6.55D-11 BMatP= 7.00D-10
 IDIUse=1 WtCom= 1.00D+00 WtEn= 0.00D+00
 Coeff-Com:  0.336D-02-0.488D-01-0.608D-01-0.339D-01 0.227D+00 0.913D+00
 Coeff:      0.336D-02-0.488D-01-0.608D-01-0.339D-01 0.227D+00 0.913D+00
 Gap=     0.296 Goal=   None    Shift=    0.000
 RMSDP=1.11D-07 MaxDP=2.66D-06 DE=-2.12D-09 OVMax= 1.16D-05

 Cycle  15  Pass 1  IDiag  1:
 RMSU=  5.73D-08    CP:  1.00D+00  1.07D+00  1.17D+00  1.47D+00  1.52D+00
                    CP:  1.21D+00
 E= -1491.02923127812     Delta-E=       -0.000000000325 Rises=F Damp=F
 DIIS: error= 1.31D-07 at cycle   7 NSaved=   7.
 NSaved= 7 IEnMin= 7 EnMin= -1491.02923127812     IErMin= 7 ErrMin= 1.31D-07
 ErrMax= 1.31D-07  0.00D+00 EMaxC= 1.00D-01 BMatC= 5.54D-12 BMatP= 6.55D-11
 IDIUse=1 WtCom= 1.00D+00 WtEn= 0.00D+00
 Coeff-Com: -0.745D-04 0.102D-01-0.159D-03-0.604D-01-0.681D-01 0.146D+00
 Coeff-Com:  0.972D+00
 Coeff:     -0.745D-04 0.102D-01-0.159D-03-0.604D-01-0.681D-01 0.146D+00
 Coeff:      0.972D+00
 Gap=     0.296 Goal=   None    Shift=    0.000
 RMSDP=3.63D-08 MaxDP=6.83D-07 DE=-3.25D-10 OVMax= 3.66D-06

 Cycle  16  Pass 1  IDiag  1:
 RMSU=  1.64D-08    CP:  1.00D+00  1.07D+00  1.17D+00  1.49D+00  1.60D+00
                    CP:  1.33D+00  1.12D+00
 E= -1491.02923127812     Delta-E=       -0.000000000005 Rises=F Damp=F
 DIIS: error= 5.36D-08 at cycle   8 NSaved=   8.
 NSaved= 8 IEnMin= 8 EnMin= -1491.02923127812     IErMin= 8 ErrMin= 5.36D-08
 ErrMax= 5.36D-08  0.00D+00 EMaxC= 1.00D-01 BMatC= 1.28D-12 BMatP= 5.54D-12
 IDIUse=1 WtCom= 1.00D+00 WtEn= 0.00D+00
 Coeff-Com: -0.318D-03 0.855D-02 0.517D-02-0.223D-01-0.474D-01-0.174D-01
 Coeff-Com:  0.410D+00 0.664D+00
 Coeff:     -0.318D-03 0.855D-02 0.517D-02-0.223D-01-0.474D-01-0.174D-01
 Coeff:      0.410D+00 0.664D+00
 Gap=     0.296 Goal=   None    Shift=    0.000
 RMSDP=8.62D-09 MaxDP=1.87D-07 DE=-5.00D-12 OVMax= 5.83D-07

 SCF Done:  E(RwB97XD) =  -1491.02923128     A.U. after   16 cycles
            NFock= 16  Conv=0.86D-08     -V/T= 2.0052
 KE= 1.483262712115D+03 PE=-5.991776223337D+03 EE= 1.776585614165D+03
 Leave Link  502 at Fri Mar  6 17:34:13 2026, MaxMem=   104857600 cpu:             134.0 elap:             136.2
 (Enter /prod/precompiled/gaussian/16c2/g16/l508.exe)
 QCSCF skips out because SCF is already converged.
 Leave Link  508 at Fri Mar  6 17:34:14 2026, MaxMem=   104857600 cpu:               0.0 elap:               0.1
 (Enter /prod/precompiled/gaussian/16c2/g16/l801.exe)
 DoSCS=F DFT=T ScalE2(SS,OS)=  1.000000  1.000000
 ExpMin= 1.22D-01 ExpMax= 1.04D+04 ExpMxC= 1.57D+03 IAcc=3 IRadAn=         5 AccDes= 0.00D+00
 HarFok:  IExCor=  205 AccDes= 0.00D+00 IRadAn=         5 IDoV=-2 UseB2=F ITyADJ=14
 ICtDFT= 12500011 ScaDFX=  1.000000  1.000000  1.000000  1.000000
 GSVD:  LWork=        -768 too small for GESVD, short by        3240 words or        3240 for optimal perf.
 Largest valence mixing into a core orbital is  7.67D-05
 Largest core mixing into a valence orbital is  5.52D-05
 Range of M.O.s used for correlation:    25   272
 NBasis=   272 NAE=    64 NBE=    64 NFC=    24 NFV=     0
 NROrb=    248 NOA=    40 NOB=    40 NVA=   208 NVB=   208

 **** Warning!!: The largest alpha MO coefficient is  0.10971315D+02

 Leave Link  801 at Fri Mar  6 17:34:14 2026, MaxMem=   104857600 cpu:               0.3 elap:               0.4
 (Enter /prod/precompiled/gaussian/16c2/g16/l914.exe)
 RHF ground state
 Two-electron integral symmetry not used.
 MDV=   104857600 DFT=T DoStab=F Mixed=T DoRPA=T DoScal=F NonHer=T
 Making orbital integer symmetry assigments:
    40 initial guesses have been made.
 Convergence on wavefunction:    0.001000000000000
 Davidson Disk Diagonalization:  ConvIn= 1.00D-03 SkipCon=T Conv= 1.00D-03.
 Max sub-space:  2000 roots to seek:    40 dimension of matrix:        16640
 Iteration     1 Dimension    40 NMult     0 NNew     40
 CISAX will form    40 AO SS matrices at one time.
 NMat=    40 NSing=    40 JSym2X= 0.
 FoFJK:  IHMeth= 1 ICntrl=       0 DoSepK=T KAlg= 0 I1Cent=           0 FoldK=F
 IRaf=         1 NMat=      80 IRICut=       1 DoRegI=T DoRafI=F ISym2E= 0 IDoP0=3 IntGTp=3.
 FoFCou: FMM=F IPFlag=           8 FMFlag=      100000 FMFlg1=           0
         NFxFlg=           0 DoJE=F BraDBF=F KetDBF=F FulRan=T
         wScrn=  0.000000 ICntrl=       500 IOpCl=  0 I1Cent=           0 NGrid=           0
         NMat0=   40 NMatS0=     40 NMatT0=    0 NMatD0=   40 NMtDS0=    0 NMtDT0=    0
 Symmetry not used in FoFCou.
 New state      3 was old state      4
 New state      4 was old state      3
 New state      5 was old state      7
 New state      6 was old state      5
 New state      7 was old state      6
 New state      8 was old state      9
 New state      9 was old state      8
 Excitation Energies [eV] at current iteration:
 Root      1 :     3.048573197688477
 Root      2 :     4.919375511504273
 Root      3 :     5.062529758900060
 Root      4 :     5.092569591728941
 Root      5 :     5.204659015119173
 Root      6 :     5.698492901011021
 Root      7 :     5.781078439748704
 Root      8 :     5.925809329089692
 Root      9 :     6.079131913246932
 Root     10 :     6.273889051417362
 Root     11 :     6.314227570786332
 Root     12 :     6.888552979225461
 Root     13 :     6.947561092409885
 Root     14 :     6.955032885975397
 Root     15 :     7.032331168170126
 Root     16 :     7.160288576893063
 Root     17 :     7.186355658828167
 Root     18 :     7.214739477316839
 Root     19 :     7.371402570669995
 Root     20 :     7.419807940853338
 Root     21 :     7.468464588619836
 Root     22 :     7.524735576539206
 Root     23 :     7.578826069423283
 Root     24 :     7.642344045766770
 Root     25 :     7.723115612143757
 Root     26 :     7.805158913873036
 Root     27 :     7.813609356511570
 Root     28 :     7.902413080380157
 Root     29 :     7.944700640689435
 Root     30 :     7.954199102738905
 Root     31 :     8.023789117497666
 Root     32 :     8.288184622295285
 Root     33 :     8.332124789535181
 Root     34 :     8.529906188030616
 Root     35 :     8.577319246824393
 Root     36 :     8.783108836524615
 Root     37 :     8.807537272304895
 Root     38 :     9.043844533521552
 Root     39 :     9.084134328371388
 Root     40 :     9.351890321677743
 Iteration     2 Dimension    60 NMult    40 NNew     20
 CISAX will form    20 AO SS matrices at one time.
 NMat=    20 NSing=    20 JSym2X= 0.
 Root      1 not converged, maximum delta is    0.019024436741473
 Root      2 not converged, maximum delta is    0.203146860798991
 Root      3 not converged, maximum delta is    0.229018075538410
 New state      4 was old state      5
 Root      4 not converged, maximum delta is    0.219912385050221
 New state      5 was old state      4
 Root      5 not converged, maximum delta is    0.244953902022332
 Root      6 not converged, maximum delta is    0.133979714209216
 Root      7 not converged, maximum delta is    0.359850927968198
 Root      8 not converged, maximum delta is    0.305580435734160
 Root      9 not converged, maximum delta is    0.110781501962185
 Root     10 not converged, maximum delta is    0.092862902293433
 Excitation Energies [eV] at current iteration:
 Root      1 :     2.862609082244972   Change is   -0.185964115443505
 Root      2 :     4.715512534109513   Change is   -0.203862977394759
 Root      3 :     4.948366335424863   Change is   -0.114163423475197
 Root      4 :     4.960805457698711   Change is   -0.243853557420462
 Root      5 :     5.028434939872277   Change is   -0.064134651856663
 Root      6 :     5.489353785800597   Change is   -0.209139115210423
 Root      7 :     5.556508040748382   Change is   -0.224570399000323
 Root      8 :     5.680153446443946   Change is   -0.245655882645746
 Root      9 :     5.772629067532052   Change is   -0.306502845714880
 Root     10 :     6.146107784188303   Change is   -0.127781267229058
 Iteration     3 Dimension    80 NMult    60 NNew     20
 CISAX will form    20 AO SS matrices at one time.
 NMat=    20 NSing=    20 JSym2X= 0.
 Root      1 not converged, maximum delta is    0.004234484025904
 Root      2 not converged, maximum delta is    0.018069128823104
 Root      3 not converged, maximum delta is    0.011448801326929
 Root      4 not converged, maximum delta is    0.024684310777483
 Root      5 not converged, maximum delta is    0.029663242819976
 Root      6 not converged, maximum delta is    0.020059998985117
 Root      7 not converged, maximum delta is    0.012398774336837
 Root      8 not converged, maximum delta is    0.014510915482807
 Root      9 not converged, maximum delta is    0.036665709770170
 Root     10 not converged, maximum delta is    0.035285764029673
 Excitation Energies [eV] at current iteration:
 Root      1 :     2.855805538238004   Change is   -0.006803544006968
 Root      2 :     4.691639916205064   Change is   -0.023872617904449
 Root      3 :     4.941985060293022   Change is   -0.006381275131841
 Root      4 :     4.949653077492600   Change is   -0.011152380206111
 Root      5 :     5.022483183308637   Change is   -0.005951756563640
 Root      6 :     5.462719705793943   Change is   -0.026634080006655
 Root      7 :     5.539732945721324   Change is   -0.016775095027058
 Root      8 :     5.659494006266075   Change is   -0.020659440177872
 Root      9 :     5.739076141269368   Change is   -0.033552926262684
 Root     10 :     6.128104307856529   Change is   -0.018003476331774
 Iteration     4 Dimension   100 NMult    80 NNew     20
 CISAX will form    20 AO SS matrices at one time.
 NMat=    20 NSing=    20 JSym2X= 0.
 Root      1 not converged, maximum delta is    0.001118797434072
 Root      2 not converged, maximum delta is    0.002216509744085
 Root      3 not converged, maximum delta is    0.001570618178178
 Root      4 not converged, maximum delta is    0.001759283726452
 Root      5 not converged, maximum delta is    0.002246294084056
 Root      6 not converged, maximum delta is    0.002660936120607
 Root      7 not converged, maximum delta is    0.001823008132066
 Root      8 not converged, maximum delta is    0.001253864128654
 Root      9 not converged, maximum delta is    0.006394373383809
 Root     10 not converged, maximum delta is    0.012118044741818
 Excitation Energies [eV] at current iteration:
 Root      1 :     2.855450942682924   Change is   -0.000354595555081
 Root      2 :     4.690310913050615   Change is   -0.001329003154450
 Root      3 :     4.941612437185582   Change is   -0.000372623107440
 Root      4 :     4.949087244244335   Change is   -0.000565833248265
 Root      5 :     5.022147474941772   Change is   -0.000335708366866
 Root      6 :     5.460768397499502   Change is   -0.001951308294441
 Root      7 :     5.538747754854445   Change is   -0.000985190866879
 Root      8 :     5.658271399736773   Change is   -0.001222606529303
 Root      9 :     5.735726019656806   Change is   -0.003350121612562
 Root     10 :     6.124885997164364   Change is   -0.003218310692165
 Iteration     5 Dimension   120 NMult   100 NNew     20
 CISAX will form    20 AO SS matrices at one time.
 NMat=    20 NSing=    20 JSym2X= 0.
 Root      1 has converged.
 Root      2 has converged.
 Root      3 has converged.
 Root      4 has converged.
 Root      5 has converged.
 Root      6 has converged.
 Root      7 has converged.
 Root      8 has converged.
 Root      9 not converged, maximum delta is    0.001758560154086
 Root     10 not converged, maximum delta is    0.001795304186554
 Excitation Energies [eV] at current iteration:
 Root      1 :     2.855440252872544   Change is   -0.000010689810380
 Root      2 :     4.690226200488885   Change is   -0.000084712561729
 Root      3 :     4.941594009088145   Change is   -0.000018428097437
 Root      4 :     4.949061244319108   Change is   -0.000025999925226
 Root      5 :     5.022133132791248   Change is   -0.000014342150523
 Root      6 :     5.460648382500369   Change is   -0.000120014999133
 Root      7 :     5.538693895697047   Change is   -0.000053859157398
 Root      8 :     5.658204052479717   Change is   -0.000067347257056
 Root      9 :     5.735382117763333   Change is   -0.000343901893473
 Root     10 :     6.124617457658720   Change is   -0.000268539505644
 Iteration     6 Dimension   124 NMult   120 NNew      4
 CISAX will form     4 AO SS matrices at one time.
 NMat=     4 NSing=     4 JSym2X= 0.
 Root      1 has converged.
 Root      2 has converged.
 Root      3 has converged.
 Root      4 has converged.
 Root      5 has converged.
 Root      6 has converged.
 Root      7 has converged.
 Root      8 has converged.
 Root      9 has converged.
 Root     10 has converged.
 Excitation Energies [eV] at current iteration:
 Root      1 :     2.855440241893875   Change is   -0.000000010978668
 Root      2 :     4.690225868529077   Change is   -0.000000331959808
 Root      3 :     4.941593968047769   Change is   -0.000000041040375
 Root      4 :     4.949061163727654   Change is   -0.000000080591454
 Root      5 :     5.022133025251231   Change is   -0.000000107540018
 Root      6 :     5.460648350520339   Change is   -0.000000031980030
 Root      7 :     5.538693837581418   Change is   -0.000000058115629
 Root      8 :     5.658203962922245   Change is   -0.000000089557472
 Root      9 :     5.735353636767170   Change is   -0.000028480996163
 Root     10 :     6.124600625225518   Change is   -0.000016832433202
 Convergence achieved on expansion vectors.
 ***********************************************************************
 Excited states from <AA,BB:AA,BB> singles matrix:
 ***********************************************************************
 
 1PDM for each excited state written to RWF  633
 Ground to excited state transition densities written to RWF  633
 Ground to excited state transition electric dipole moments (Au):
       state          X           Y           Z        Dip. S.      Osc.
         1        -0.2090      0.3230      0.0883      0.1558      0.0109
         2        -0.1573     -0.0917     -0.0486      0.0355      0.0041
         3         0.0804      0.0684      0.0541      0.0141      0.0017
         4         0.5467     -0.5216     -0.8403      1.2770      0.1548
         5         0.1264     -0.1753     -0.0994      0.0566      0.0070
         6        -0.4945     -0.2782     -0.1429      0.3424      0.0458
         7        -0.2561      0.1351      0.6030      0.4474      0.0607
         8         0.4085     -0.7970      0.1488      0.8242      0.1142
         9         0.1567      0.0912      0.0502      0.0354      0.0050
        10         0.4076     -0.4707     -0.4646      0.6035      0.0906
 Ground to excited state transition velocity dipole moments (Au):
       state          X           Y           Z        Dip. S.      Osc.
         1         0.0234     -0.0460      0.0093      0.0027      0.0174
         2         0.0249      0.0145      0.0077      0.0009      0.0034
         3        -0.0191     -0.0147     -0.0111      0.0007      0.0026
         4        -0.0950      0.0877      0.1510      0.0395      0.1448
         5        -0.0219      0.0308      0.0168      0.0017      0.0062
         6         0.0951      0.0535      0.0275      0.0127      0.0421
         7         0.0528     -0.0250     -0.1299      0.0203      0.0664
         8        -0.0840      0.1648     -0.0326      0.0353      0.1131
         9        -0.0322     -0.0187     -0.0104      0.0015      0.0047
        10        -0.0919      0.1068      0.1034      0.0305      0.0904
 Ground to excited state transition magnetic dipole moments (Au):
       state          X           Y           Z
         1        -0.7782      0.9201      0.7337
         2         0.0278      0.0076      0.0789
         3         0.1370      0.0705     -0.0136
         4        -0.4355      0.2741     -0.4015
         5        -0.0858      0.1045     -0.0557
         6        -1.0813     -0.6427     -0.0491
         7         0.2345      0.2023      0.0463
         8        -0.2887      0.9363     -0.3637
         9        -0.3502     -0.1898     -0.1960
        10        -0.0039     -0.2519     -0.4152
 Ground to excited state transition velocity quadrupole moments (Au):
       state          XX          YY          ZZ          XY          XZ          YZ
         1         0.1344      0.1989     -0.0967     -0.0673     -0.1402     -0.0951
         2         0.1430     -0.0167      0.2896     -0.0694     -0.1286      0.0764
         3        -0.0810     -0.0611      0.0797      0.0342     -0.0690      0.0542
         4        -0.7435      0.0835      0.0129      0.5366      0.2527     -0.1349
         5        -0.1518     -0.0349      0.0043      0.1289      0.0328     -0.0058
         6         0.4931      0.3976     -0.5439     -0.3065      0.2998     -0.1723
         7         0.4637     -0.1656     -0.0122     -0.2746     -0.2389      0.1300
         8        -1.0585      0.0953      0.1105      0.7897      0.0241      0.3203
         9        -0.0690      0.1347     -0.4801      0.0908      0.2182     -0.0681
        10        -1.0291      0.1393      0.1835      0.5867      0.4271      0.1379
 <0|del|b> * <b|rxdel|0> + <0|del|b> * <b|delr+rdel|0>
 Rotatory Strengths (R) in cgs (10**-40 erg-esu-cm/Gauss)
       state          XX          YY          ZZ    R(velocity)    E-M Angle
         1      -143.2624    -43.5480   -174.5506   -120.4537      136.50
         2         4.2120      7.6686     -6.0882      1.9308       55.71
         3        -4.4390     -6.0974     -3.1302     -4.5555      148.65
         4        43.3072   -169.9594    145.2831      6.2103       87.88
         5         6.5846     -2.0785     11.4658      5.3240       46.45
         6      -106.0764   -197.6466   -184.6778   -162.8003      168.03
         7        32.4095    -39.0047     11.1670      1.5240       88.31
         8       232.0699     59.3683    356.0975    215.8452       14.07
         9        14.6438     27.5606     14.3238     18.8427       10.75
        10       -86.0217   -182.0614     49.8552    -72.7427      144.93
 1/2[<0|r|b>*<b|rxdel|0> + (<0|rxdel|b>*<b|r|0>)*]
 Rotatory Strengths (R) in cgs (10**-40 erg-esu-cm/Gauss)
       state          XX          YY          ZZ     R(length)
         1      -115.0170   -210.1698    -45.8129   -123.6666
         2         3.0866      0.4933      2.7141      2.0980
         3        -7.7935     -3.4115      0.5209     -3.5613
         4       168.3540    101.1094   -238.5560     10.3024
         5         7.6661     12.9570     -3.9130      5.5701
         6      -378.1099   -126.4578     -4.9667   -169.8448
         7        42.4738    -19.3311    -19.7264      1.1388
         8        83.3892    527.6830     38.2586    216.4436
         9        38.8066     12.2444      6.9602     19.3371
        10         1.1244    -83.8429   -136.4008    -73.0398
  1/2[<0|del|b>*<b|r|0> + (<0|r|b>*<b|del|0>)*] (Au)
       state          X           Y           Z        Dip. S.   Osc.(frdel)
         1        -0.0049     -0.0148      0.0008      0.0189      0.0126
         2        -0.0039     -0.0013     -0.0004      0.0056      0.0037
         3        -0.0015     -0.0010     -0.0006      0.0031      0.0021
         4        -0.0519     -0.0457     -0.1268      0.2245      0.1497
         5        -0.0028     -0.0054     -0.0017      0.0098      0.0066
         6        -0.0470     -0.0149     -0.0039      0.0659      0.0439
         7        -0.0135     -0.0034     -0.0783      0.0952      0.0635
         8        -0.0343     -0.1314     -0.0048      0.1705      0.1137
         9        -0.0050     -0.0017     -0.0005      0.0073      0.0048
        10        -0.0375     -0.0502     -0.0480      0.1357      0.0905

 Excitation energies and oscillator strengths:
 
 Excited state symmetry could not be determined.
 Excited State   1:      Singlet-?Sym    2.8554 eV  434.20 nm  f=0.0109  <S**2>=0.000
      25 -> 68         0.00118
      25 -> 89         0.00216
      25 -> 98         0.00116
      25 ->113         0.00123
      26 -> 65         0.00505
      26 -> 69        -0.00281
      28 -> 65        -0.00216
      28 -> 69         0.00132
      28 -> 70         0.00106
      30 -> 65         0.01238
      30 -> 67         0.00271
      30 -> 69        -0.00571
      30 -> 70        -0.00153
      30 -> 91        -0.00160
      31 ->149        -0.00106
      31 ->153        -0.00103
      32 -> 65        -0.00355
      32 -> 69         0.00123
      34 -> 65        -0.01209
      34 -> 67        -0.00313
      34 -> 69         0.00379
      35 -> 68         0.00105
      35 -> 89         0.00167
      35 -> 98         0.00102
      35 ->113         0.00102
      35 ->149         0.00155
      35 ->153         0.00142
      35 ->204        -0.00121
      35 ->208         0.00152
      36 -> 65         0.00169
      36 -> 82         0.00108
      36 -> 91        -0.00140
      37 ->149         0.00103
      38 -> 65         0.00453
      39 -> 68         0.00292
      39 -> 71         0.00134
      39 -> 77         0.00149
      39 -> 85        -0.00129
      39 -> 89         0.00173
      39 ->145         0.00109
      39 ->149         0.00137
      39 ->153         0.00137
      39 ->204        -0.00133
      39 ->208         0.00154
      40 -> 65         0.00334
      40 -> 69        -0.00287
      40 -> 70         0.00162
      41 -> 70        -0.00136
      41 -> 82         0.00229
      41 -> 92        -0.00120
      41 ->107         0.00140
      42 -> 66         0.00135
      42 -> 68         0.00208
      42 -> 71        -0.00199
      42 -> 77         0.00122
      42 -> 89         0.00135
      42 ->149         0.00178
      42 ->204        -0.00105
      42 ->208         0.00110
      43 ->149         0.00123
      44 -> 65         0.00816
      44 -> 67         0.00253
      44 -> 69        -0.00464
      44 -> 70        -0.00217
      44 -> 75        -0.00125
      44 -> 84        -0.00118
      45 -> 68        -0.00378
      45 -> 74        -0.00140
      45 -> 77        -0.00127
      45 -> 79         0.00110
      45 -> 85         0.00118
      45 -> 89        -0.00166
      45 ->145        -0.00158
      45 ->149        -0.00154
      45 ->153        -0.00115
      46 -> 71        -0.00101
      46 -> 77         0.00140
      46 ->145         0.00161
      46 ->149         0.00162
      47 -> 65        -0.00204
      47 -> 70        -0.00258
      47 -> 73         0.00213
      48 -> 66         0.00118
      48 -> 71         0.00239
      48 -> 72         0.00187
      49 -> 65        -0.00491
      49 -> 76         0.00125
      49 -> 82         0.00241
      49 -> 92        -0.00189
      49 -> 99         0.00121
      49 ->107         0.00120
      49 ->112         0.00135
      49 ->115        -0.00178
      49 ->150        -0.00133
      50 -> 65        -0.00562
      50 -> 67        -0.00138
      50 -> 69         0.00601
      50 -> 73         0.00126
      50 -> 82        -0.00414
      50 -> 86        -0.00166
      50 -> 91         0.00124
      50 -> 92         0.00104
      50 -> 99        -0.00133
      50 ->107        -0.00105
      50 ->111        -0.00101
      50 ->143         0.00144
      50 ->150         0.00172
      50 ->166         0.00135
      50 ->183         0.00128
      51 -> 66         0.00165
      51 -> 68         0.00294
      51 -> 72        -0.00128
      51 -> 89         0.00215
      51 ->100        -0.00157
      51 ->103         0.00122
      51 ->113         0.00114
      51 ->114        -0.00133
      51 ->137         0.00152
      51 ->142        -0.00129
      51 ->145         0.00258
      51 ->149         0.00286
      51 ->151        -0.00165
      51 ->153         0.00166
      51 ->162        -0.00105
      51 ->229        -0.00107
      51 ->239        -0.00113
      52 -> 65        -0.02086
      52 -> 67        -0.00496
      52 -> 69         0.00854
      52 -> 73         0.00117
      52 -> 76         0.00180
      52 -> 78        -0.00104
      52 -> 82         0.00113
      52 -> 91         0.00141
      52 -> 92        -0.00112
      53 -> 66        -0.00117
      53 -> 68        -0.00281
      53 -> 71         0.00144
      53 -> 72         0.00135
      53 -> 90         0.00106
      54 -> 68         0.00179
      54 -> 71        -0.00153
      54 -> 72        -0.00126
      54 -> 79         0.00104
      54 -> 89         0.00273
      54 ->145         0.00102
      54 ->149         0.00141
      55 -> 65         0.01610
      55 -> 67         0.00381
      55 -> 69        -0.00273
      55 -> 70         0.00178
      55 -> 73        -0.00141
      55 -> 78        -0.00111
      55 -> 82        -0.00271
      55 -> 86        -0.00181
      55 -> 91        -0.00229
      55 -> 92         0.00229
      55 -> 99        -0.00132
      55 ->107        -0.00105
      55 ->115         0.00159
      55 ->150         0.00133
      55 ->163        -0.00104
      55 ->166         0.00118
      55 ->183         0.00115
      56 -> 68        -0.00238
      57 -> 65         0.01447
      57 -> 69        -0.00319
      57 -> 76        -0.00122
      58 -> 65         0.04510
      58 -> 67         0.01021
      58 -> 69        -0.01640
      58 -> 70        -0.00337
      58 -> 75        -0.00139
      58 -> 82        -0.00135
      58 -> 91        -0.00241
      58 -> 92         0.00138
      58 -> 95        -0.00117
      58 -> 96        -0.00152
      58 ->102        -0.00144
      58 ->115         0.00130
      58 ->116         0.00150
      58 ->139         0.00136
      58 ->163        -0.00116
      59 -> 68         0.00331
      59 -> 79        -0.00113
      59 -> 83        -0.00108
      59 ->100         0.00141
      59 ->113         0.00101
      60 -> 65         0.23762
      60 -> 67         0.04317
      60 -> 69        -0.07874
      60 -> 70        -0.01252
      60 -> 73        -0.00212
      60 -> 75        -0.00499
      60 -> 76        -0.00401
      60 -> 78         0.00332
      60 -> 81        -0.00282
      60 -> 82         0.00120
      60 -> 86         0.00457
      60 -> 87        -0.00155
      60 -> 91        -0.00736
      60 -> 92         0.00429
      60 -> 95        -0.00287
      60 -> 96        -0.00110
      60 -> 99        -0.00218
      60 ->102        -0.00383
      60 ->109        -0.00120
      60 ->112        -0.00208
      60 ->115         0.00382
      60 ->116         0.00137
      60 ->120        -0.00160
      60 ->122         0.00110
      60 ->125        -0.00205
      60 ->130         0.00121
      60 ->141         0.00121
      60 ->143        -0.00241
      60 ->144         0.00120
      60 ->148         0.00120
      60 ->154         0.00291
      60 ->160         0.00147
      60 ->163        -0.00264
      60 ->167         0.00245
      60 ->180        -0.00107
      60 ->183        -0.00108
      60 ->242         0.00184
      60 ->259         0.00110
      61 -> 66        -0.00469
      61 -> 68        -0.00593
      61 -> 72         0.00151
      61 -> 74        -0.00118
      61 -> 83         0.00203
      61 -> 89        -0.00377
      61 -> 93         0.00115
      61 -> 94        -0.00156
      61 -> 98        -0.00154
      61 ->100         0.00211
      61 ->113        -0.00111
      61 ->114         0.00114
      61 ->137        -0.00108
      61 ->145        -0.00160
      61 ->149        -0.00225
      61 ->151         0.00118
      61 ->153        -0.00113
      62 -> 65        -0.09515
      62 -> 67        -0.02074
      62 -> 69         0.02546
      62 -> 70         0.00397
      62 -> 75         0.00177
      62 -> 78        -0.00154
      62 -> 84         0.00118
      62 -> 91         0.00242
      62 -> 92        -0.00103
      62 ->102         0.00160
      62 ->112         0.00134
      62 ->163         0.00112
      63 -> 66         0.00686
      63 -> 68        -0.00473
      63 -> 79         0.00109
      63 -> 83         0.00150
      63 -> 89        -0.00305
      63 -> 90        -0.00136
      63 ->106        -0.00145
      63 ->137        -0.00102
      63 ->149        -0.00136
      63 ->153        -0.00106
      64 -> 65         0.62485
      64 -> 67         0.09771
      64 -> 68         0.00163
      64 -> 69        -0.15588
      64 -> 70        -0.02176
      64 -> 73        -0.00310
      64 -> 75        -0.00732
      64 -> 76        -0.00827
      64 -> 78         0.00309
      64 -> 81        -0.00384
      64 -> 82        -0.00221
      64 -> 84        -0.00296
      64 -> 86         0.00379
      64 -> 87        -0.00142
      64 -> 91        -0.00934
      64 -> 92         0.00489
      64 -> 95        -0.00286
      64 -> 96        -0.00264
      64 -> 99        -0.00196
      64 ->102        -0.00563
      64 ->107        -0.00174
      64 ->109        -0.00138
      64 ->111         0.00102
      64 ->112        -0.00137
      64 ->115         0.00342
      64 ->116         0.00252
      64 ->120        -0.00150
      64 ->125        -0.00210
      64 ->130         0.00103
      64 ->139         0.00219
      64 ->141         0.00132
      64 ->143        -0.00292
      64 ->144         0.00162
      64 ->148         0.00104
      64 ->154         0.00361
      64 ->160         0.00256
      64 ->163        -0.00550
      64 ->166         0.00117
      64 ->167         0.00359
      64 ->175        -0.00108
      64 ->180        -0.00125
      64 ->228         0.00171
      64 ->240        -0.00122
      64 ->242         0.00237
      64 ->259         0.00117
      64 ->260         0.00116
      25 <- 89         0.00194
      25 <- 98         0.00113
      25 <-113         0.00115
      26 <- 65         0.00267
      26 <- 69        -0.00170
      28 <- 65        -0.00114
      30 <- 65         0.00655
      30 <- 67         0.00129
      30 <- 69        -0.00352
      30 <- 91        -0.00117
      32 <- 65        -0.00202
      32 <- 69         0.00102
      34 <- 65        -0.00824
      34 <- 67        -0.00212
      34 <- 69         0.00454
      34 <- 91         0.00109
      35 <- 89         0.00133
      35 <-208         0.00103
      36 <- 65         0.00203
      36 <- 91        -0.00127
      37 <- 68         0.00131
      37 <-117        -0.00109
      38 <- 65         0.00669
      38 <- 67         0.00123
      38 <- 69        -0.00395
      39 <- 89         0.00101
      40 <- 65        -0.00581
      40 <- 67        -0.00131
      40 <- 69         0.00258
      40 <- 70         0.00201
      41 <- 69         0.00230
      41 <-125        -0.00178
      41 <-220         0.00112
      42 <- 68         0.00102
      42 <- 71        -0.00178
      43 <- 66         0.00127
      43 <- 68         0.00208
      43 <- 83        -0.00119
      44 <- 65        -0.00429
      44 <- 69         0.00254
      45 <- 71        -0.00115
      45 <- 89        -0.00160
      46 <- 89         0.00161
      46 <- 97        -0.00103
      46 <-204         0.00155
      46 <-208        -0.00112
      47 <- 70        -0.00131
      47 <- 73         0.00125
      48 <- 71         0.00182
      48 <- 72         0.00137
      49 <- 67         0.00139
      49 <-125        -0.00168
      49 <-150        -0.00121
      49 <-220         0.00115
      50 <- 65         0.00278
      50 <- 69        -0.00269
      50 <- 70        -0.00215
      50 <- 73         0.00128
      50 <- 78         0.00145
      50 <- 81        -0.00101
      50 <-115         0.00101
      50 <-116        -0.00110
      50 <-125         0.00273
      50 <-126         0.00114
      50 <-129        -0.00139
      50 <-133        -0.00107
      50 <-150         0.00171
      50 <-163        -0.00138
      50 <-171        -0.00134
      50 <-183         0.00118
      50 <-184        -0.00106
      50 <-220        -0.00168
      50 <-225         0.00104
      51 <- 66         0.00106
      51 <- 83        -0.00133
      51 <- 89         0.00133
      51 <-145         0.00111
      51 <-204         0.00138
      52 <- 65         0.00719
      52 <- 67         0.00119
      52 <- 69        -0.00303
      52 <- 84        -0.00112
      52 <-125        -0.00160
      53 <- 66         0.00104
      53 <-204         0.00104
      54 <- 66        -0.00113
      54 <- 68        -0.00180
      54 <- 89         0.00225
      54 <- 93        -0.00105
      54 <- 97        -0.00103
      54 <-204         0.00107
      55 <- 65        -0.00164
      55 <- 69         0.00186
      55 <- 82         0.00183
      55 <- 86        -0.00101
      55 <- 91        -0.00142
      55 <-116        -0.00127
      55 <-125         0.00259
      55 <-129        -0.00110
      55 <-150         0.00139
      55 <-163        -0.00152
      55 <-171        -0.00110
      55 <-183         0.00121
      55 <-220        -0.00133
      55 <-225         0.00100
      56 <- 68        -0.00205
      57 <- 69         0.00126
      58 <- 65        -0.00792
      58 <- 67        -0.00257
      58 <- 69         0.00350
      60 <- 65        -0.02664
      60 <- 67        -0.00851
      60 <- 69         0.01313
      60 <- 70         0.00402
      60 <- 75         0.00139
      60 <- 78        -0.00153
      60 <- 82        -0.00189
      60 <- 84         0.00114
      60 <- 91         0.00360
      60 <-102         0.00191
      60 <-112         0.00102
      60 <-115        -0.00173
      60 <-171         0.00100
      60 <-242         0.00172
      60 <-259         0.00102
      61 <- 66        -0.00380
      61 <- 71         0.00170
      61 <- 79         0.00101
      61 <- 83         0.00291
      61 <- 94        -0.00106
      61 <- 97        -0.00125
      62 <- 65         0.00932
      62 <- 69        -0.00590
      62 <- 70        -0.00178
      63 <- 66         0.00182
      63 <- 71         0.00204
      63 <- 83         0.00142
      63 <- 89        -0.00105
      63 <-118         0.00107
      64 <- 65        -0.05171
      64 <- 67        -0.01082
      64 <- 69         0.02007
      64 <- 70         0.00324
      64 <- 75         0.00161
      64 <- 78        -0.00244
      64 <- 86        -0.00185
      64 <- 91         0.00414
      64 <- 92        -0.00254
      64 <- 95         0.00113
      64 <- 99         0.00109
      64 <-102         0.00215
      64 <-112         0.00205
      64 <-115        -0.00280
      64 <-125         0.00145
      64 <-163        -0.00241
      64 <-228         0.00164
      64 <-240        -0.00101
      64 <-242         0.00213
      64 <-259         0.00109
      64 <-260         0.00106
 This state for optimization and/or second-order correction.
 Total Energy, E(TD-HF/TD-DFT) =  -1490.92429578    
 Copying the excited state density for this state as the 1-particle RhoCI density.
 
 Excited state symmetry could not be determined.
 Excited State   2:      Singlet-?Sym    4.6902 eV  264.35 nm  f=0.0041  <S**2>=0.000
      25 -> 65         0.00915
      25 -> 67         0.00262
      25 -> 69        -0.00543
      25 -> 78         0.00106
      25 -> 82        -0.00106
      25 ->125        -0.00102
      27 -> 65        -0.00112
      27 -> 67        -0.00125
      27 -> 82         0.00121
      29 -> 65         0.00238
      29 -> 69        -0.00104
      30 -> 90         0.00158
      31 -> 65        -0.00387
      31 -> 67        -0.00140
      31 -> 69         0.00156
      31 -> 84        -0.00106
      32 -> 71         0.00106
      32 -> 89         0.00103
      33 -> 65         0.00143
      33 -> 91        -0.00130
      34 -> 71         0.00168
      34 -> 80         0.00139
      34 -> 83         0.00404
      34 -> 90        -0.00126
      35 -> 70        -0.00187
      35 -> 82         0.00292
      35 -> 91        -0.00145
      36 -> 83        -0.00201
      36 -> 88         0.00139
      36 -> 89         0.00324
      36 -> 90         0.00134
      36 ->114        -0.00103
      37 -> 65         0.00384
      37 -> 82         0.00151
      37 -> 87        -0.00132
      37 -> 91         0.00248
      37 -> 92        -0.00169
      37 -> 99         0.00140
      37 ->115        -0.00146
      37 ->116         0.00119
      37 ->122        -0.00119
      38 -> 71        -0.00150
      38 -> 72        -0.00136
      38 -> 83        -0.00225
      38 -> 89         0.00137
      38 -> 90         0.00239
      38 -> 97         0.00122
      39 -> 65         0.00156
      39 -> 70        -0.00322
[...]
   7         O               -10.356398         15.744787
   8         O               -10.356318         15.751025
   9         O               -10.328040         15.751752
  10         O               -10.327992         15.751758
  11         O               -10.326998         15.750130
  12         O               -10.326953         15.751502
  13         O               -10.323850         15.759748
  14         O               -10.323830         15.759610
  15         O               -10.323386         15.743110
  16         O               -10.323358         15.743238
  17         O                -9.597419         21.659677
  18         O                -9.597372         21.659774
  19         O                -7.351304         20.536785
  20         O                -7.351259         20.536766
  21         O                -7.341614         20.555672
  22         O                -7.341565         20.555689
  23         O                -7.341147         20.555766
  24         O                -7.341099         20.555766
  25         O                -1.162122          2.299634
  26         O                -1.011060          2.028382
  27         O                -1.001795          2.112129
  28         O                -0.948687          2.303777
  29         O                -0.946743          2.220078
  30         O                -0.903198          1.924545
  31         O                -0.868927          1.812704
  32         O                -0.846095          2.050404
  33         O                -0.841566          2.101264
  34         O                -0.784002          1.922922
  35         O                -0.737739          1.689630
  36         O                -0.721553          1.586870
  37         O                -0.711555          1.685595
  38         O                -0.674994          1.677633
  39         O                -0.653139          1.479503
  40         O                -0.600968          1.412294
  41         O                -0.594176          1.431626
  42         O                -0.593298          1.501152
  43         O                -0.582862          1.463515
  44         O                -0.548967          1.468881
  45         O                -0.546542          1.322764
  46         O                -0.543532          1.410720
  47         O                -0.530864          1.582386
  48         O                -0.529871          1.564247
  49         O                -0.501759          1.309143
  50         O                -0.488629          1.558312
  51         O                -0.479954          1.465580
  52         O                -0.475827          1.479044
  53         O                -0.472442          1.548942
  54         O                -0.457302          1.532949
  55         O                -0.445055          1.616884
  56         O                -0.430807          1.749939
  57         O                -0.430545          1.679360
  58         O                -0.405712          2.344530
  59         O                -0.402519          2.330889
  60         O                -0.359817          1.586350
  61         O                -0.355676          1.259509
  62         O                -0.342084          1.534750
  63         O                -0.332254          1.566164
  64         O                -0.304555          1.891307
  65         V                -0.008164          1.885413
  66         V                 0.029969          1.328350
  67         V                 0.043488          1.496042
  68         V                 0.050759          1.543609
  69         V                 0.054030          1.628038
  70         V                 0.105214          1.905694
  71         V                 0.110913          1.977448
  72         V                 0.156837          1.237992
  73         V                 0.157696          1.343033
  74         V                 0.177675          0.984089
  75         V                 0.180263          0.854630
  76         V                 0.205639          1.230536
  77         V                 0.210536          1.631458
  78         V                 0.210984          1.529547
  79         V                 0.214434          1.134332
  80         V                 0.220738          0.982527
  81         V                 0.223822          1.000582
  82         V                 0.284701          2.361669
  83         V                 0.314724          2.067371
  84         V                 0.329144          1.586761
  85         V                 0.345586          1.643478
  86         V                 0.347434          1.318878
  87         V                 0.353481          1.504847
  88         V                 0.353909          1.427793
  89         V                 0.363911          1.572449
  90         V                 0.375399          1.780976
  91         V                 0.379997          1.712575
  92         V                 0.400166          1.834731
  93         V                 0.413627          1.775585
  94         V                 0.450987          1.525406
  95         V                 0.460773          1.564670
  96         V                 0.469275          1.803427
  97         V                 0.478941          1.837987
  98         V                 0.490814          1.618421
  99         V                 0.496308          1.713521
 100         V                 0.509332          2.194440
 101         V                 0.511544          1.833454
 102         V                 0.522647          1.866712
 103         V                 0.537112          1.817576
 104         V                 0.544525          1.807929
 105         V                 0.545515          1.994132
 106         V                 0.556573          2.217742
 107         V                 0.557453          1.829900
 108         V                 0.569266          1.845934
 109         V                 0.579991          1.945248
 110         V                 0.598754          1.975863
 111         V                 0.600092          1.956501
 112         V                 0.617064          2.030172
 113         V                 0.620073          2.322497
 114         V                 0.636376          2.210877
 115         V                 0.642583          2.247288
 116         V                 0.649705          2.804684
 117         V                 0.654136          2.773904
 118         V                 0.670827          2.361124
 119         V                 0.680043          2.270839
 120         V                 0.685105          2.149333
 121         V                 0.708044          2.478961
 122         V                 0.714865          2.518423
 123         V                 0.721049          2.333328
 124         V                 0.727902          2.517384
 125         V                 0.729567          2.671119
 126         V                 0.738684          2.540579
 127         V                 0.742510          2.532130
 128         V                 0.757594          2.455715
 129         V                 0.761237          2.690333
 130         V                 0.769459          2.635863
 131         V                 0.782120          2.792290
 132         V                 0.787818          2.938823
 133         V                 0.789412          2.579925
 134         V                 0.795761          2.526707
 135         V                 0.801263          2.696474
 136         V                 0.815564          2.650149
 137         V                 0.817481          2.833233
 138         V                 0.826747          2.937566
 139         V                 0.830134          2.814392
 140         V                 0.847766          2.618516
 141         V                 0.855884          2.572869
 142         V                 0.858127          2.522182
 143         V                 0.871978          2.684674
 144         V                 0.882394          3.160272
 145         V                 0.888630          2.928799
 146         V                 0.893907          3.506829
 147         V                 0.895727          3.193804
 148         V                 0.915404          2.836185
 149         V                 0.926738          2.821544
 150         V                 0.932434          2.670521
 151         V                 0.935634          2.646354
 152         V                 0.953490          3.042975
 153         V                 0.955354          2.841177
 154         V                 0.990636          2.774813
 155         V                 0.994641          2.714537
 156         V                 1.006269          3.254120
 157         V                 1.017575          2.829853
 158         V                 1.035171          2.677263
 159         V                 1.091987          2.850721
 160         V                 1.092954          2.844517
 161         V                 1.110197          2.962930
 162         V                 1.110941          3.247614
 163         V                 1.142045          2.594502
 164         V                 1.154826          2.691067
 165         V                 1.184636          3.100932
 166         V                 1.194630          2.888659
 167         V                 1.218717          3.530490
 168         V                 1.249540          3.237685
 169         V                 1.263253          2.298531
 170         V                 1.280540          2.278439
 171         V                 1.286397          2.406774
 172         V                 1.316027          2.382624
 173         V                 1.323861          2.419090
 174         V                 1.329335          2.832763
 175         V                 1.333107          2.630282
 176         V                 1.346036          2.414763
 177         V                 1.356243          2.362089
 178         V                 1.361468          2.576101
 179         V                 1.362794          2.656679
 180         V                 1.373986          2.550190
 181         V                 1.390543          2.653826
 182         V                 1.453352          2.618555
 183         V                 1.469076          3.438515
 184         V                 1.534463          2.617110
 185         V                 1.539832          2.885238
 186         V                 1.566213          3.236564
 187         V                 1.590857          2.649638
 188         V                 1.601448          2.681557
 189         V                 1.672156          2.760092
 190         V                 1.683798          2.805402
 191         V                 1.735767          2.764723
 192         V                 1.738989          2.781097
 193         V                 1.767619          2.779208
 194         V                 1.782153          2.922739
 195         V                 1.786034          2.626028
 196         V                 1.786457          2.749540
 197         V                 1.807258          3.055500
 198         V                 1.821654          3.020138
 199         V                 1.825463          3.077603
 200         V                 1.832816          3.126681
 201         V                 1.841807          2.854632
 202         V                 1.847715          2.894687
 203         V                 1.849542          2.866449
 204         V                 1.861206          2.952653
 205         V                 1.871093          2.828484
 206         V                 1.888882          2.882891
 207         V                 1.905823          3.142303
 208         V                 1.921721          3.174247
 209         V                 1.953114          3.218289
 210         V                 1.976201          3.034230
 211         V                 1.981570          3.005150
 212         V                 1.993226          3.169942
 213         V                 2.008128          3.159635
 214         V                 2.018904          2.913629
 215         V                 2.021410          2.907631
 216         V                 2.025225          3.175787
 217         V                 2.070582          3.414525
 218         V                 2.078086          3.270730
 219         V                 2.087971          3.317036
 220         V                 2.124317          3.405652
 221         V                 2.135971          3.283650
 222         V                 2.143748          3.364211
 223         V                 2.205477          3.455196
 224         V                 2.214571          3.445396
 225         V                 2.222363          3.444956
 226         V                 2.236494          3.487928
 227         V                 2.241070          3.535082
 228         V                 2.295274          3.709654
 229         V                 2.305476          3.651113
 230         V                 2.317629          3.744483
 231         V                 2.318366          3.772996
 232         V                 2.336106          3.586746
 233         V                 2.351636          3.627014
 234         V                 2.355059          3.549977
 235         V                 2.362719          3.593015
 236         V                 2.374277          3.663489
 237         V                 2.388861          3.510236
 238         V                 2.396874          3.620460
 239         V                 2.418068          4.045265
 240         V                 2.432205          3.979477
 241         V                 2.478660          4.077925
 242         V                 2.516772          4.123215
 243         V                 2.565382          3.891750
 244         V                 2.568853          3.716184
 245         V                 2.660992          4.493407
 246         V                 2.662531          4.376404
 247         V                 2.677831          4.076373
 248         V                 2.704336          4.335974
 249         V                 2.706283          4.428294
 250         V                 2.708332          4.097411
 251         V                 2.744466          4.338924
 252         V                 2.791990          4.598508
 253         V                 2.794467          4.590520
 254         V                 2.822519          4.584360
 255         V                 2.852108          4.573475
 256         V                 2.885630          4.670415
 257         V                 2.891285          4.692773
 258         V                 2.913200          4.676776
 259         V                 2.923357          4.623201
 260         V                 2.940414          4.715758
 261         V                 2.950338          4.753861
 262         V                 3.051946          4.736815
 263         V                 3.056199          4.805827
 264         V                 3.126780          4.837711
 265         V                 3.139490          4.861552
 266         V                 3.159325          4.880702
 267         V                 3.234553          5.043372
 268         V                 3.301687          5.075345
 269         V                 3.427692          5.200726
 270         V                 3.459061          5.729476
 271         V                 3.659498          5.364370
 272         V                 3.692757          5.399844
 Total kinetic energy from orbitals= 1.483262712115D+03
 Leave Link  601 at Fri Mar  6 17:42:40 2026, MaxMem=   104857600 cpu:               0.1 elap:               0.2
 (Enter /prod/precompiled/gaussian/16c2/g16/l9999.exe)
 Electronic transition elements 
                 1             2             3             4             5 
      1  -0.149092D+04 -0.149086D+04 -0.149085D+04 -0.149085D+04 -0.149084D+04
      2  -0.209000D+00 -0.157283D+00  0.804412D-01  0.546680D+00  0.126352D+00
      3   0.323011D+00 -0.917237D-01  0.684227D-01 -0.521574D+00 -0.175331D+00
      4   0.882974D-01 -0.486261D-01  0.541065D-01 -0.840291D+00 -0.993978D-01
      5   0.233546D-01  0.248693D-01 -0.191493D-01 -0.949778D-01 -0.219477D-01
      6  -0.459634D-01  0.145364D-01 -0.147079D-01  0.876696D-01  0.308040D-01
      7   0.932704D-02  0.774312D-02 -0.110857D-01  0.150955D+00  0.167726D-01
      8  -0.778205D+00  0.277504D-01  0.137003D+00 -0.435481D+00 -0.857969D-01
      9   0.920093D+00  0.760583D-02  0.705049D-01  0.274129D+00  0.104502D+00
     10   0.733700D+00  0.789279D-01 -0.136139D-01 -0.401458D+00 -0.556684D-01
     11   0.134386D+00  0.143002D+00 -0.810281D-01 -0.743472D+00 -0.151822D+00
     12   0.198907D+00 -0.167306D-01 -0.611187D-01  0.835016D-01 -0.348826D-01
     13  -0.966893D-01  0.289584D+00  0.797033D-01  0.129191D-01  0.431650D-02
     14  -0.673267D-01 -0.693720D-01  0.341835D-01  0.536568D+00  0.128937D+00
     15  -0.140151D+00 -0.128554D+00 -0.689997D-01  0.252677D+00  0.328209D-01
     16  -0.950841D-01  0.763920D-01  0.542036D-01 -0.134933D+00 -0.584776D-02
                 6             7             8             9            10 
      1  -0.149083D+04 -0.149083D+04 -0.149082D+04 -0.149082D+04 -0.149080D+04
      2  -0.494497D+00 -0.256105D+00  0.408502D+00  0.156704D+00  0.407631D+00
      3  -0.278238D+00  0.135143D+00 -0.796976D+00  0.912431D-01 -0.470662D+00
      4  -0.142921D+00  0.602972D+00  0.148762D+00  0.502106D-01 -0.464587D+00
      5   0.951258D-01  0.527585D-01 -0.839598D-01 -0.321605D-01 -0.919166D-01
      6   0.535066D-01 -0.249537D-01  0.164822D+00 -0.187182D-01  0.106755D+00
      7   0.274794D-01 -0.129901D+00 -0.325713D-01 -0.103754D-01  0.103387D+00
      8  -0.108127D+01  0.234522D+00 -0.288665D+00 -0.350190D+00 -0.390056D-02
      9  -0.642699D+00  0.202276D+00  0.936283D+00 -0.189766D+00 -0.251904D+00
     10  -0.491417D-01  0.462626D-01 -0.363677D+00 -0.196023D+00 -0.415173D+00
     11   0.493087D+00  0.463712D+00 -0.105846D+01 -0.690149D-01 -0.102906D+01
     12   0.397593D+00 -0.165626D+00  0.952887D-01  0.134671D+00  0.139286D+00
     13  -0.543867D+00 -0.121525D-01  0.110534D+00 -0.480130D+00  0.183463D+00
     14  -0.306468D+00 -0.274645D+00  0.789658D+00  0.907543D-01  0.586667D+00
     15   0.299830D+00 -0.238949D+00  0.240826D-01  0.218230D+00  0.427106D+00
     16  -0.172284D+00  0.130021D+00  0.320255D+00 -0.681306D-01  0.137879D+00

 Test job not archived.
 1\1\GINC-AMD44\SP\RwB97XD TD-FC\def2SVP\C12H8Cl2N2\SVELA\06-Mar-2026\0
 \\#p nosymm scf=(maxconventionalcycles=200,xqc) wB97XD def2SVP td=(sin
 glets,nstates=10) pop=full iop(9/40=3) GFINPUT Integral=NoXCTest\\Titl
 e Card\\0,1\C,0,-0.018265,-0.076286,0.554644\C,0,-0.053084,0.069688,1.
 943717\Cl,0,-0.67069,-1.233069,2.917769\C,0,0.447016,1.219884,2.547909
 \C,0,0.970545,2.240828,1.75756\C,0,1.002915,2.10565,0.370007\C,0,0.513
 099,0.950442,-0.230821\N,0,-0.645815,-1.200923,-0.065258\N,0,0.008986,
 -2.013691,-0.722576\C,0,1.437487,-1.969067,-0.739905\C,0,2.118625,-1.7
 44501,-1.938918\Cl,0,1.213175,-1.30406,-3.358134\C,0,3.507795,-1.82000
 2,-1.989481\C,0,4.222269,-2.139548,-0.836832\C,0,3.54941,-2.371657,0.3
 62361\C,0,2.161897,-2.284412,0.413015\H,0,0.42385,1.303924,3.635274\H,
 0,1.355424,3.145336,2.23196\H,0,1.413501,2.903822,-0.250978\H,0,0.5281
 26,0.830014,-1.316327\H,0,4.018336,-1.624566,-2.933484\H,0,5.310891,-2
 .205864,-0.879326\H,0,4.107302,-2.621312,1.266646\H,0,1.619392,-2.4665
 78,1.343382\\Version=ES64L-G16RevC.02\HF=-1491.0292313\RMSD=8.622e-09\
 PG=C01 [X(C12H8Cl2N2)]\\@


 MORNING PEOPLE ARE USUALLY ADMIRED AS EARLY BIRDS.
 RECALL BEN FRANKLIN'S APHORISM THAT THE EARLY BIRD GETS THE WORM.
 I IDENTIFY WITH THE WORM. --  CRAIG JAGGER, MINNEAPOLIS, KS.
 Job cpu time:       0 days  0 hours 10 minutes 37.1 seconds.
 Elapsed time:       0 days  0 hours 10 minutes 46.8 seconds.
 File lengths (MBytes):  RWF=    600 Int=      0 D2E=      0 Chk=     31 Scr=      1
 Normal termination of Gaussian 16 at Fri Mar  6 17:42:40 2026.
