 Entering Gaussian System, Link 0=g16
 Initial command:
 /prod/precompiled/gaussian/16c2/g16/l1.exe "/scratch/ucsscms/svela/2076360/Gau-958930.inp" -scrdir="/scratch/ucsscms/svela/2076360/"
 Entering Link 1 = /prod/precompiled/gaussian/16c2/g16/l1.exe PID=    958953.
  
 Copyright (c) 1988-2021, Gaussian, Inc.  All Rights Reserved.
  
 This is part of the Gaussian(R) 16 program.  It is based on
 the Gaussian(R) 09 system (copyright 2009, Gaussian, Inc.),
 the Gaussian(R) 03 system (copyright 2003, Gaussian, Inc.),
 the Gaussian(R) 98 system (copyright 1998, Gaussian, Inc.),
 the Gaussian(R) 94 system (copyright 1995, Gaussian, Inc.),
 the Gaussian 92(TM) system (copyright 1992, Gaussian, Inc.),
 the Gaussian 90(TM) system (copyright 1990, Gaussian, Inc.),
 the Gaussian 88(TM) system (copyright 1988, Gaussian, Inc.),
 the Gaussian 86(TM) system (copyright 1986, Carnegie Mellon
 University), and the Gaussian 82(TM) system (copyright 1983,
 Carnegie Mellon University). Gaussian is a federally registered
 trademark of Gaussian, Inc.
  
 This software contains proprietary and confidential information,
 including trade secrets, belonging to Gaussian, Inc.
  
 This software is provided under written license and may be
 used, copied, transmitted, or stored only in accord with that
 written license.
  
 The following legend is applicable only to US Government
 contracts under FAR:
  
                    RESTRICTED RIGHTS LEGEND
  
 Use, reproduction and disclosure by the US Government is
 subject to restrictions as set forth in subparagraphs (a)
 and (c) of the Commercial Computer Software - Restricted
 Rights clause in FAR 52.227-19.
  
 Gaussian, Inc.
 340 Quinnipiac St., Bldg. 40, Wallingford CT 06492
  
  
 ---------------------------------------------------------------
 Warning -- This program may not be used in any manner that
 competes with the business of Gaussian, Inc. or will provide
 assistance to any competitor of Gaussian, Inc.  The licensee
 of this program is prohibited from giving any competitor of
 Gaussian, Inc. access to this program.  By using this program,
 the user acknowledges that Gaussian, Inc. is engaged in the
 business of creating and licensing software in the field of
 computational chemistry and represents and warrants to the
 licensee that it is not a competitor of Gaussian, Inc. and that
 it will not use this program in any manner prohibited above.
 ---------------------------------------------------------------
  

 Cite this work as:
 Gaussian 16, Revision C.02,
 M. J. Frisch, G. W. Trucks, H. B. Schlegel, G. E. Scuseria, 
 M. A. Robb, J. R. Cheeseman, G. Scalmani, V. Barone, 
 G. A. Petersson, H. Nakatsuji, X. Li, M. Caricato, A. V. Marenich, 
 J. Bloino, B. G. Janesko, R. Gomperts, B. Mennucci, H. P. Hratchian, 
 J. V. Ortiz, A. F. Izmaylov, J. L. Sonnenberg, D. Williams-Young, 
 F. Ding, F. Lipparini, F. Egidi, J. Goings, B. Peng, A. Petrone, 
 T. Henderson, D. Ranasinghe, V. G. Zakrzewski, J. Gao, N. Rega, 
 G. Zheng, W. Liang, M. Hada, M. Ehara, K. Toyota, R. Fukuda, 
 J. Hasegawa, M. Ishida, T. Nakajima, Y. Honda, O. Kitao, H. Nakai, 
 T. Vreven, K. Throssell, J. A. Montgomery, Jr., J. E. Peralta, 
 F. Ogliaro, M. J. Bearpark, J. J. Heyd, E. N. Brothers, K. N. Kudin, 
 V. N. Staroverov, T. A. Keith, R. Kobayashi, J. Normand, 
 K. Raghavachari, A. P. Rendell, J. C. Burant, S. S. Iyengar, 
 J. Tomasi, M. Cossi, J. M. Millam, M. Klene, C. Adamo, R. Cammi, 
 J. W. Ochterski, R. L. Martin, K. Morokuma, O. Farkas, 
 J. B. Foresman, and D. J. Fox, Gaussian, Inc., Wallingford CT, 2019.
 
 ******************************************
 Gaussian 16:  ES64L-G16RevC.02  7-Dec-2021
                 6-Mar-2026 
 ******************************************
 %nprocs=12
 Will use up to   12 processors via shared memory.
 %mem=18gb
 %chk=test_tsrot_a_t_opt_r1.chk
 ----------------------------------------------------------------------
 #p nosymm scf=(maxconventionalcycles=200,xqc) UwB97XD def2SVP opt=(Rec
 alcFC=30,cartesian,skipdihedral)
 ----------------------------------------------------------------------
 1/10=7,18=10,26=3,38=1,71=30,156=2/1,3;
 2/12=2,15=1,17=6,18=5,29=2,40=1/2;
 3/5=43,7=101,11=2,25=1,30=1,71=2,74=-58,116=2,140=1/1,2,3;
 4//1;
 5/5=2,8=3,13=1,38=5,85=200/2,8;
 8/6=4,10=90,11=11/1;
 11/6=1,8=1,9=11,15=111,16=1,31=1/1,2,10;
 10/6=1,31=1/2;
 6/7=2,8=2,9=2,10=2,28=1/1;
 7/7=1,10=1,25=1,30=1/1,2,3,16;
 1/10=7,18=10,26=3,71=30,156=2/3(3);
 2/15=1,29=1/2;
 7/7=1,9=1,25=1,30=1,44=-1/16;
 99/12=1/99;
 2/15=1,29=1/2;
 3/5=43,7=101,11=2,25=1,30=1,71=2,74=-58,116=2,140=1/1,2,3;
 4/5=5,16=3,69=1/1;
 5/5=2,8=3,13=1,38=5,85=200/2,8;
 8/6=4,10=90,11=11/1;
 11/6=1,8=1,9=11,15=111,16=1,31=1/1,2,10;
 10/6=1,31=1/2;
 7/7=1,10=1,25=1,30=1/1,2,3,16;
 1/18=10,26=3,71=30,156=2/3(-8);
 2/15=1,29=1/2;
 6/7=2,8=2,9=2,10=2,19=2,28=1/1;
 7/7=1,9=1,25=1,30=1,44=-1/16;
 99/9=1,12=1/99;
 Leave Link    1 at Fri Mar  6 16:25:19 2026, MaxMem=  2415919104 cpu:               0.1 elap:               0.1
 (Enter /prod/precompiled/gaussian/16c2/g16/l101.exe)
 ----------
 Title Card
 ----------
 Symbolic Z-matrix:
 Charge =  0 Multiplicity = 3
 C                    -0.16122  -1.33925  -0.42574 
 C                     0.        0.        0. 
 Cl                    0.56877   0.47818   1.56922 
 C                    -0.31367   1.07248  -0.85337 
 C                    -0.7972    0.84692  -2.13792 
 C                    -0.95654  -0.45692  -2.5861 
 C                    -0.63549  -1.5317   -1.74269 
 N                     0.08266  -2.53079   0.32197 
 N                     0.6083   -2.32978   1.43206 
 C                     2.01989  -2.32978   1.43206 
 C                     2.82053  -2.53544   0.29631 
 Cl                    2.15308  -2.90061  -1.25858 
 C                     4.21585  -2.40168   0.36999 
 C                     4.83063  -2.04976   1.57104 
 C                     4.05456  -1.8182    2.70007 
 C                     2.66142  -1.95019   2.62701 
 H                    -0.18416   2.09549  -0.50772 
 H                    -1.046     1.68889  -2.78003 
 H                    -1.33312  -0.63985  -3.59066 
 H                    -0.76263  -2.54389  -2.1244 
 H                     4.82519  -2.55401  -0.51641 
 H                     5.91285  -1.94304   1.6176 
 H                     4.52731  -1.52181   3.63435 
 H                     2.06508  -1.73158   3.51051 
 
 ITRead=  0  0  0  0  0  0  0  0  0  0  0  0  0  0  0  0  0  0  0  0
 ITRead=  0  0  0  0
 MicOpt= -1 -1 -1 -1 -1 -1 -1 -1 -1 -1 -1 -1 -1 -1 -1 -1 -1 -1 -1 -1
 MicOpt= -1 -1 -1 -1
 NAtoms=     24 NQM=       24 NQMF=       0 NMMI=      0 NMMIF=      0
                NMic=       0 NMicF=      0.
                    Isotopes and Nuclear Properties:
 (Nuclear quadrupole moments (NQMom) in fm**2, nuclear magnetic moments (NMagM)
  in nuclear magnetons)

  Atom         1           2           3           4           5           6           7           8           9          10
 IAtWgt=          12          12          35          12          12          12          12          14          14          12
 AtmWgt=  12.0000000  12.0000000  34.9688527  12.0000000  12.0000000  12.0000000  12.0000000  14.0030740  14.0030740  12.0000000
 NucSpn=           0           0           3           0           0           0           0           2           2           0
 AtZEff=  -0.0000000  -0.0000000  -0.0000000  -0.0000000  -0.0000000  -0.0000000  -0.0000000  -0.0000000  -0.0000000  -0.0000000
 NQMom=    0.0000000   0.0000000  -8.1650000   0.0000000   0.0000000   0.0000000   0.0000000   2.0440000   2.0440000   0.0000000
 NMagM=    0.0000000   0.0000000   0.8218740   0.0000000   0.0000000   0.0000000   0.0000000   0.4037610   0.4037610   0.0000000
 AtZNuc=   6.0000000   6.0000000  17.0000000   6.0000000   6.0000000   6.0000000   6.0000000   7.0000000   7.0000000   6.0000000

  Atom        11          12          13          14          15          16          17          18          19          20
 IAtWgt=          12          35          12          12          12          12           1           1           1           1
 AtmWgt=  12.0000000  34.9688527  12.0000000  12.0000000  12.0000000  12.0000000   1.0078250   1.0078250   1.0078250   1.0078250
 NucSpn=           0           3           0           0           0           0           1           1           1           1
 AtZEff=  -0.0000000  -0.0000000  -0.0000000  -0.0000000  -0.0000000  -0.0000000  -0.0000000  -0.0000000  -0.0000000  -0.0000000
 NQMom=    0.0000000  -8.1650000   0.0000000   0.0000000   0.0000000   0.0000000   0.0000000   0.0000000   0.0000000   0.0000000
 NMagM=    0.0000000   0.8218740   0.0000000   0.0000000   0.0000000   0.0000000   2.7928460   2.7928460   2.7928460   2.7928460
 AtZNuc=   6.0000000  17.0000000   6.0000000   6.0000000   6.0000000   6.0000000   1.0000000   1.0000000   1.0000000   1.0000000

  Atom        21          22          23          24
 IAtWgt=           1           1           1           1
 AtmWgt=   1.0078250   1.0078250   1.0078250   1.0078250
 NucSpn=           1           1           1           1
 AtZEff=  -0.0000000  -0.0000000  -0.0000000  -0.0000000
 NQMom=    0.0000000   0.0000000   0.0000000   0.0000000
 NMagM=    2.7928460   2.7928460   2.7928460   2.7928460
 AtZNuc=   1.0000000   1.0000000   1.0000000   1.0000000
 Leave Link  101 at Fri Mar  6 16:25:20 2026, MaxMem=  2415919104 cpu:               0.1 elap:               0.1
 (Enter /prod/precompiled/gaussian/16c2/g16/l103.exe)

 GradGradGradGradGradGradGradGradGradGradGradGradGradGradGradGradGradGrad
 Berny optimization.
 Initialization pass.
 No Z-matrix variables, so optimization will use Cartesian coordinates.
 Trust Radius=3.00D-01 FncErr=1.00D-07 GrdErr=1.00D-06 EigMax=2.50D+02 EigMin=1.00D-04
 Number of steps in this run=     82 maximum allowed number of steps=    144.
 Step   0 in ReCalcFC=30 IGetFC= 4 compute analytic Hessian.
 GradGradGradGradGradGradGradGradGradGradGradGradGradGradGradGradGradGrad

 Leave Link  103 at Fri Mar  6 16:25:20 2026, MaxMem=  2415919104 cpu:               0.2 elap:               0.1
 (Enter /prod/precompiled/gaussian/16c2/g16/l202.exe)
 ---------------------------------------------------------------------------------------------------
                            Z-MATRIX (ANGSTROMS AND DEGREES)
   CD    Cent   Atom    N1       Length/X        N2       Alpha/Y        N3        Beta/Z          J
 ---------------------------------------------------------------------------------------------------
      1      1  C        0  -0.161223         -1.339254         -0.425744
      2      2  C        0   0.000000          0.000000          0.000000
      3      3  Cl       0   0.568765          0.478181          1.569221
      4      4  C        0  -0.313667          1.072479         -0.853365
      5      5  C        0  -0.797195          0.846916         -2.137920
      6      6  C        0  -0.956539         -0.456916         -2.586099
      7      7  C        0  -0.635486         -1.531700         -1.742687
      8      8  N        0   0.082663         -2.530789          0.321967
      9      9  N        0   0.608303         -2.329777          1.432063
     10     10  C        0   2.019891         -2.329777          1.432063
     11     11  C        0   2.820525         -2.535435          0.296313
     12     12  Cl       0   2.153085         -2.900613         -1.258583
     13     13  C        0   4.215853         -2.401676          0.369987
     14     14  C        0   4.830629         -2.049756          1.571041
     15     15  C        0   4.054561         -1.818203          2.700065
     16     16  C        0   2.661424         -1.950191          2.627007
     17     17  H        0  -0.184164          2.095494         -0.507717
     18     18  H        0  -1.046003          1.688893         -2.780031
     19     19  H        0  -1.333123         -0.639852         -3.590660
     20     20  H        0  -0.762626         -2.543892         -2.124395
     21     21  H        0   4.825191         -2.554007         -0.516414
     22     22  H        0   5.912852         -1.943036          1.617602
     23     23  H        0   4.527313         -1.521805          3.634351
     24     24  H        0   2.065084         -1.731581          3.510510
 ---------------------------------------------------------------------------------------------------
                         Z-Matrix orientation:                         
 ---------------------------------------------------------------------
 Center     Atomic      Atomic             Coordinates (Angstroms)
 Number     Number       Type             X           Y           Z
 ---------------------------------------------------------------------
      1          6           0       -0.161223   -1.339254   -0.425744
      2          6           0        0.000000    0.000000    0.000000
      3         17           0        0.568765    0.478181    1.569221
      4          6           0       -0.313667    1.072479   -0.853365
      5          6           0       -0.797195    0.846916   -2.137920
      6          6           0       -0.956539   -0.456916   -2.586099
      7          6           0       -0.635486   -1.531700   -1.742687
      8          7           0        0.082663   -2.530789    0.321967
      9          7           0        0.608303   -2.329777    1.432063
     10          6           0        2.019891   -2.329777    1.432063
     11          6           0        2.820525   -2.535435    0.296313
     12         17           0        2.153085   -2.900613   -1.258583
     13          6           0        4.215853   -2.401676    0.369987
     14          6           0        4.830629   -2.049756    1.571041
     15          6           0        4.054561   -1.818203    2.700065
     16          6           0        2.661424   -1.950191    2.627007
     17          1           0       -0.184164    2.095494   -0.507717
     18          1           0       -1.046003    1.688893   -2.780031
     19          1           0       -1.333123   -0.639852   -3.590660
     20          1           0       -0.762626   -2.543892   -2.124395
     21          1           0        4.825191   -2.554007   -0.516414
     22          1           0        5.912852   -1.943036    1.617602
     23          1           0        4.527313   -1.521805    3.634351
     24          1           0        2.065084   -1.731581    3.510510
 ---------------------------------------------------------------------
                    Distance matrix (angstroms):
                    1          2          3          4          5
     1  C    0.000000
     2  C    1.414515   0.000000
     3  Cl   2.795682   1.736262   0.000000
     4  C    2.454089   1.405998   2.645902   0.000000
     5  C    2.848745   2.433822   3.967960   1.390956   0.000000
     6  C    2.465397   2.794932   4.524118   2.398896   1.387888
     7  C    1.412905   2.405599   4.056917   2.770597   2.416645
     8  N    1.427693   2.552526   3.293302   3.810777   4.270139
     9  N    2.241596   2.801553   2.811584   4.201018   4.981123
    10  C    3.031475   3.399798   3.163733   4.716357   5.547263
    11  C    3.292877   3.804155   3.971473   4.915482   5.518486
    12  Cl   2.913329   3.825358   4.682178   4.694095   4.849882
    13  C    4.573918   4.866041   4.799270   5.838056   6.478703
    14  C    5.423149   5.477650   4.955195   6.487671   7.336178
    15  C    5.270001   5.199584   4.324692   6.329638   7.351768
    16  C    4.202365   4.217533   3.375666   5.486410   6.518465
    17  H    3.435803   2.163975   2.737933   1.087568   2.142969
    18  H    3.936391   3.416878   4.794715   2.151354   1.087721
    19  H    3.446622   3.883229   5.611733   3.385875   2.146661
    20  H    2.167546   3.400888   4.954627   3.859433   3.391011
    21  H    5.133047   5.483804   5.626829   6.298635   6.768071
    22  H    6.436940   6.430695   5.867188   7.346329   8.180007
    23  H    6.204842   6.001746   4.892321   7.092601   8.202459
    24  H    4.539213   4.425678   3.300094   5.706541   6.837108
                    6          7          8          9         10
     6  C    0.000000
     7  C    1.403417   0.000000
     8  N    3.719911   2.403479   0.000000
     9  N    4.701273   3.501853   1.244595   0.000000
    10  C    5.339698   4.215091   2.241779   1.411588   0.000000
    11  C    5.186015   4.136305   2.737986   2.495225   1.404720
    12  Cl   4.171776   3.143948   2.630885   3.154644   2.753756
    13  C    6.266911   5.362438   4.135485   3.761328   2.440374
    14  C    7.301388   6.413079   4.933027   4.233883   2.828069
    15  C    7.409977   6.466581   4.683920   3.707591   2.451412
    16  C    6.518896   5.489898   3.507180   2.405677   1.408383
    17  H    3.380981   3.858157   4.707660   4.896302   5.310709
    18  H    2.156411   3.408347   5.357424   6.052121   6.579601
    19  H    1.088312   2.167278   4.570420   5.643822   6.271068
    20  H    2.146216   1.089219   2.588315   3.817550   4.520690
    21  H    6.489206   5.689275   4.816118   4.650697   3.422945
    22  H    8.189517   7.371667   6.001269   5.321864   3.916521
    23  H    8.360659   7.454336   5.634257   4.567442   3.433665
    24  H    6.922689   5.910085   3.838689   2.607679   2.163290
                   11         12         13         14         15
    11  C    0.000000
    12  Cl   1.731050   0.000000
    13  C    1.403659   2.675106   0.000000
    14  C    2.429266   3.987477   1.394392   0.000000
    15  C    2.795584   4.523065   2.407430   1.389458   0.000000
    16  C    2.408310   4.032310   2.777450   2.414628   1.401281
    17  H    5.578541   5.566652   6.352563   6.830262   6.601036
    18  H    6.500683   5.797632   7.371736   8.212437   8.267220
    19  H    5.996214   4.764795   7.041440   8.162281   8.365935
    20  H    4.324219   3.062393   5.570226   6.721973   6.856189
    21  H    2.163228   2.794835   1.086372   2.147503   3.388365
    22  H    3.414561   4.829621   2.155620   1.088469   2.154195
    23  H    3.883693   5.610604   3.395181   2.151274   1.088226
    24  H    3.398225   4.911072   3.864935   3.392789   2.149964
                   16         17         18         19         20
    16  C    0.000000
    17  H    5.855889   0.000000
    18  H    7.498267   2.464042   0.000000
    19  H    7.505516   4.278640   2.482461   0.000000
    20  H    5.886631   4.946935   4.292625   2.469973   0.000000
    21  H    3.863622   6.834587   7.589274   7.144215   5.814585
    22  H    3.404517   7.615793   8.997541   9.018228   7.676300
    23  H    2.163284   7.241519   9.083762   9.344696   7.886144
    24  H    1.088113   5.987635   7.807010   7.947723   6.356725
                   21         22         23         24
    21  H    0.000000
    22  H    2.471905   0.000000
    23  H    4.287543   2.482827   0.000000
    24  H    4.950827   4.293382   2.474250   0.000000
 Symmetry turned off by external request.
 Stoichiometry    C12H8Cl2N2(3)
 Framework group  C1[X(C12H8Cl2N2)]
 Deg. of freedom    66
 Full point group                 C1      NOp   1
 Rotational constants (GHZ):           0.7515102           0.3704659           0.2967639
 Leave Link  202 at Fri Mar  6 16:25:20 2026, MaxMem=  2415919104 cpu:               0.2 elap:               0.4
 (Enter /prod/precompiled/gaussian/16c2/g16/l301.exe)
 Standard basis: def2SVP (5D, 7F)
 Ernie: Thresh=  0.10000D-02 Tol=  0.10000D-05 Strict=F.
   272 basis functions,   480 primitive gaussians,   288 cartesian basis functions
    65 alpha electrons       63 beta electrons
       nuclear repulsion energy      1276.9967495054 Hartrees.
 IExCor= 4639 DFT=T Ex+Corr=wB97XD ExCW=0 ScaHFX=  1.000000
 ScaDFX=  1.000000  1.000000  1.000000  1.000000 ScalE2=  1.000000  1.000000
 IRadAn=      5 IRanWt=     -1 IRanGd=            0 ICorTp=0 IEmpDi=121
 HFx  wShort=  0.000000 wLong=  0.200000 cFull=  0.222036 cShort=  0.000000 cLong=  0.777964
 DFx  wShort=  0.000000 wLong=  0.200000 cFull=  0.000000 cShort=  0.000000 cLong=  1.000000
 NAtoms=   24 NActive=   24 NUniq=   24 SFac= 1.00D+00 NAtFMM=   60 NAOKFM=F Big=F
 Integral buffers will be    131072 words long.
 Raffenetti 2 integral format.
 Two-electron integral symmetry is turned off.
 R6Disp:  Grimme-D2 Dispersion energy=       -0.0158564095 Hartrees.
 Nuclear repulsion after empirical dispersion term =     1276.9808930959 Hartrees.
 Leave Link  301 at Fri Mar  6 16:25:20 2026, MaxMem=  2415919104 cpu:               0.1 elap:               0.1
 (Enter /prod/precompiled/gaussian/16c2/g16/l302.exe)
 NPDir=0 NMtPBC=     1 NCelOv=     1 NCel=       1 NClECP=     1 NCelD=      1
         NCelK=      1 NCelE2=     1 NClLst=     1 CellRange=     0.0.
 One-electron integrals computed using PRISM.
   1 Symmetry operations used in ECPInt.
 ECPInt:  NShTT=    7750 NPrTT=   30142 LenC2=    7315 LenP2D=   20050.
 LDataN:  DoStor=T MaxTD1= 4 Len=   56
 NBasis=   272 RedAO= T EigKep=  2.28D-04  NBF=   272
 NBsUse=   272 1.00D-06 EigRej= -1.00D+00 NBFU=   272
 Precomputing XC quadrature grid using
 IXCGrd= 4 IRadAn=           5 IRanWt=          -1 IRanGd=           0 AccXCQ= 0.00D+00.
 Generated NRdTot=       0 NPtTot=           0 NUsed=           0 NTot=          32
 NSgBfM=   286   286   286   286   286 MxSgAt=    24 MxSgA2=    24.
 Leave Link  302 at Fri Mar  6 16:25:21 2026, MaxMem=  2415919104 cpu:               2.1 elap:               0.6
 (Enter /prod/precompiled/gaussian/16c2/g16/l303.exe)
 DipDrv:  MaxL=1.
 Leave Link  303 at Fri Mar  6 16:25:21 2026, MaxMem=  2415919104 cpu:               0.3 elap:               0.1
 (Enter /prod/precompiled/gaussian/16c2/g16/l401.exe)
 ExpMin= 1.22D-01 ExpMax= 1.04D+04 ExpMxC= 1.57D+03 IAcc=3 IRadAn=         5 AccDes= 0.00D+00
 Harris functional with IExCor= 4639 and IRadAn=       5 diagonalized for initial guess.
 HarFok:  IExCor= 4639 AccDes= 0.00D+00 IRadAn=         5 IDoV= 1 UseB2=F ITyADJ=14
 ICtDFT=  3500011 ScaDFX=  1.000000  1.000000  1.000000  1.000000
 FoFCou: FMM=F IPFlag=           0 FMFlag=      100000 FMFlg1=           0
         NFxFlg=           0 DoJE=T BraDBF=F KetDBF=T FulRan=T
         wScrn=  0.000000 ICntrl=       500 IOpCl=  0 I1Cent=   200000004 NGrid=           0
         NMat0=    1 NMatS0=      1 NMatT0=    0 NMatD0=    1 NMtDS0=    0 NMtDT0=    0
 Symmetry not used in FoFCou.
 Harris En= -1450.73691436380    
 JPrj=0 DoOrth=F DoCkMO=F.
 Initial guess <Sx>= 0.0000 <Sy>= 0.0000 <Sz>= 1.0000 <S**2>= 2.0000 S= 1.0000
 Leave Link  401 at Fri Mar  6 16:25:22 2026, MaxMem=  2415919104 cpu:               5.7 elap:               0.8
 (Enter /prod/precompiled/gaussian/16c2/g16/l502.exe)
 Two-electron integral symmetry not used.
 UHF open shell SCF:
 Using DIIS extrapolation, IDIIS=  1040.
 NGot=  2415919104 LenX=  2415746906 LenY=  2415663521
 Requested convergence on RMS density matrix=1.00D-08 within 200 cycles.
 Requested convergence on MAX density matrix=1.00D-06.
 Requested convergence on             energy=1.00D-06.
 No special actions if energy rises.
 Fock matrices will be formed incrementally for  20 cycles.
 Integral accuracy reduced to 1.0D-05 until final iterations.

 Cycle   1  Pass 0  IDiag  1:
 FoFJK:  IHMeth= 1 ICntrl=       0 DoSepK=T KAlg= 0 I1Cent=           0 FoldK=F
 IRaf=         1 NMat=       1 IRICut=       1 DoRegI=T DoRafI=F ISym2E= 0 IDoP0=0 IntGTp=1.
 FoFCou: FMM=F IPFlag=           0 FMFlag=      100000 FMFlg1=           0
         NFxFlg=           0 DoJE=T BraDBF=F KetDBF=F FulRan=T
         wScrn=  0.000000 ICntrl=       500 IOpCl=  0 I1Cent=           0 NGrid=           0
         NMat0=    1 NMatS0=      1 NMatT0=    0 NMatD0=    1 NMtDS0=    0 NMtDT0=    0
 Symmetry not used in FoFCou.
 E= -1490.38784013851    
 DIIS: error= 3.43D-02 at cycle   1 NSaved=   1.
 NSaved= 1 IEnMin= 1 EnMin= -1490.38784013851     IErMin= 1 ErrMin= 3.43D-02
 ErrMax= 3.43D-02  0.00D+00 EMaxC= 1.00D-01 BMatC= 3.32D+00 BMatP= 3.32D+00
 IDIUse=3 WtCom= 6.57D-01 WtEn= 3.43D-01
 Coeff-Com:  0.100D+01
 Coeff-En:   0.100D+01
 Coeff:      0.100D+01
 Gap=     0.356 Goal=   None    Shift=    0.000
 Gap=     0.317 Goal=   None    Shift=    0.000
 GapD=    0.317 DampG=1.000 DampE=0.500 DampFc=0.5000 IDamp=-1.
 Damping current iteration by 5.00D-01
 RMSDP=7.70D-03 MaxDP=3.02D-01              OVMax= 5.66D-01

 Cycle   2  Pass 0  IDiag  1:
 RMSU=  3.80D-03    CP:  9.75D-01
 E= -1490.58663214719     Delta-E=       -0.198792008684 Rises=F Damp=T
 DIIS: error= 1.46D-02 at cycle   2 NSaved=   2.
 NSaved= 2 IEnMin= 2 EnMin= -1490.58663214719     IErMin= 2 ErrMin= 1.46D-02
 ErrMax= 1.46D-02  0.00D+00 EMaxC= 1.00D-01 BMatC= 4.90D-01 BMatP= 3.32D+00
 IDIUse=3 WtCom= 8.54D-01 WtEn= 1.46D-01
 Coeff-Com: -0.302D-01 0.103D+01
 Coeff-En:   0.203D+00 0.797D+00
 Coeff:      0.384D-02 0.996D+00
 Gap=     0.475 Goal=   None    Shift=    0.000
 Gap=     0.300 Goal=   None    Shift=    0.000
 RMSDP=3.04D-03 MaxDP=8.48D-02 DE=-1.99D-01 OVMax= 4.17D-01

 Cycle   3  Pass 0  IDiag  1:
 RMSU=  3.02D-03    CP:  9.63D-01  9.52D-01
 E= -1490.85102232122     Delta-E=       -0.264390174028 Rises=F Damp=F
 DIIS: error= 2.02D-02 at cycle   3 NSaved=   3.
 NSaved= 3 IEnMin= 3 EnMin= -1490.85102232122     IErMin= 2 ErrMin= 1.46D-02
 ErrMax= 2.02D-02  0.00D+00 EMaxC= 1.00D-01 BMatC= 3.90D-01 BMatP= 4.90D-01
 IDIUse=3 WtCom= 7.98D-01 WtEn= 2.02D-01
 Coeff-Com: -0.149D+00 0.551D+00 0.598D+00
 Coeff-En:   0.000D+00 0.000D+00 0.100D+01
 Coeff:     -0.119D+00 0.440D+00 0.679D+00
 Gap=     0.317 Goal=   None    Shift=    0.000
 Gap=     0.292 Goal=   None    Shift=    0.000
 RMSDP=2.24D-03 MaxDP=8.79D-02 DE=-2.64D-01 OVMax= 1.92D-01

 Cycle   4  Pass 0  IDiag  1:
 RMSU=  1.56D-03    CP:  9.53D-01  1.20D+00  5.79D-01
 E= -1490.95110297829     Delta-E=       -0.100080657076 Rises=F Damp=F
 DIIS: error= 4.64D-03 at cycle   4 NSaved=   4.
 NSaved= 4 IEnMin= 4 EnMin= -1490.95110297829     IErMin= 4 ErrMin= 4.64D-03
 ErrMax= 4.64D-03  0.00D+00 EMaxC= 1.00D-01 BMatC= 5.47D-02 BMatP= 3.90D-01
 IDIUse=3 WtCom= 9.54D-01 WtEn= 4.64D-02
 Coeff-Com: -0.263D-01 0.459D-01 0.292D+00 0.688D+00
 Coeff-En:   0.000D+00 0.000D+00 0.324D-01 0.968D+00
 Coeff:     -0.251D-01 0.437D-01 0.280D+00 0.701D+00
 Gap=     0.305 Goal=   None    Shift=    0.000
 Gap=     0.283 Goal=   None    Shift=    0.000
 RMSDP=6.57D-04 MaxDP=2.08D-02 DE=-1.00D-01 OVMax= 6.12D-02

 Cycle   5  Pass 0  IDiag  1:
 RMSU=  3.49D-04    CP:  9.52D-01  1.18D+00  7.49D-01  8.72D-01
 E= -1490.96906271449     Delta-E=       -0.017959736198 Rises=F Damp=F
 DIIS: error= 1.81D-03 at cycle   5 NSaved=   5.
 NSaved= 5 IEnMin= 5 EnMin= -1490.96906271449     IErMin= 5 ErrMin= 1.81D-03
 ErrMax= 1.81D-03  0.00D+00 EMaxC= 1.00D-01 BMatC= 2.12D-03 BMatP= 5.47D-02
 IDIUse=3 WtCom= 9.82D-01 WtEn= 1.81D-02
 Coeff-Com:  0.157D-01-0.475D-01-0.732D-01-0.147D-01 0.112D+01
 Coeff-En:   0.000D+00 0.000D+00 0.000D+00 0.000D+00 0.100D+01
 Coeff:      0.154D-01-0.467D-01-0.718D-01-0.144D-01 0.112D+01
 Gap=     0.310 Goal=   None    Shift=    0.000
 Gap=     0.287 Goal=   None    Shift=    0.000
 RMSDP=3.16D-04 MaxDP=1.38D-02 DE=-1.80D-02 OVMax= 4.09D-02

 Cycle   6  Pass 0  IDiag  1:
 RMSU=  1.69D-04    CP:  9.50D-01  1.19D+00  7.48D-01  9.97D-01  1.50D+00
 E= -1490.97188729338     Delta-E=       -0.002824578893 Rises=F Damp=F
 DIIS: error= 7.62D-04 at cycle   6 NSaved=   6.
 NSaved= 6 IEnMin= 6 EnMin= -1490.97188729338     IErMin= 6 ErrMin= 7.62D-04
 ErrMax= 7.62D-04  0.00D+00 EMaxC= 1.00D-01 BMatC= 7.25D-04 BMatP= 2.12D-03
 IDIUse=3 WtCom= 9.92D-01 WtEn= 7.62D-03
 Coeff-Com:  0.939D-02-0.165D-01-0.835D-01-0.176D+00 0.358D+00 0.908D+00
 Coeff-En:   0.000D+00 0.000D+00 0.000D+00 0.000D+00 0.000D+00 0.100D+01
 Coeff:      0.932D-02-0.163D-01-0.828D-01-0.174D+00 0.356D+00 0.909D+00
 Gap=     0.312 Goal=   None    Shift=    0.000
 Gap=     0.290 Goal=   None    Shift=    0.000
 RMSDP=1.68D-04 MaxDP=7.23D-03 DE=-2.82D-03 OVMax= 1.98D-02

 Cycle   7  Pass 0  IDiag  1:
 RMSU=  7.68D-05    CP:  9.50D-01  1.19D+00  7.56D-01  1.03D+00  1.86D+00
                    CP:  1.24D+00
 E= -1490.97264265293     Delta-E=       -0.000755359541 Rises=F Damp=F
 DIIS: error= 3.68D-04 at cycle   7 NSaved=   7.
 NSaved= 7 IEnMin= 7 EnMin= -1490.97264265293     IErMin= 7 ErrMin= 3.68D-04
 ErrMax= 3.68D-04  0.00D+00 EMaxC= 1.00D-01 BMatC= 1.52D-04 BMatP= 7.25D-04
 IDIUse=3 WtCom= 9.96D-01 WtEn= 3.68D-03
 Coeff-Com: -0.231D-02 0.924D-02-0.567D-02-0.457D-01-0.148D+00 0.276D+00
 Coeff-Com:  0.916D+00
 Coeff-En:   0.000D+00 0.000D+00 0.000D+00 0.000D+00 0.000D+00 0.000D+00
 Coeff-En:   0.100D+01
 Coeff:     -0.230D-02 0.921D-02-0.565D-02-0.455D-01-0.147D+00 0.275D+00
 Coeff:      0.916D+00
 Gap=     0.313 Goal=   None    Shift=    0.000
 Gap=     0.290 Goal=   None    Shift=    0.000
 RMSDP=7.52D-05 MaxDP=2.33D-03 DE=-7.55D-04 OVMax= 8.66D-03

 Cycle   8  Pass 0  IDiag  1:
 RMSU=  3.60D-05    CP:  9.50D-01  1.19D+00  7.54D-01  1.04D+00  2.00D+00
                    CP:  1.49D+00  1.08D+00
 E= -1490.97278526400     Delta-E=       -0.000142611080 Rises=F Damp=F
 DIIS: error= 1.53D-04 at cycle   8 NSaved=   8.
 NSaved= 8 IEnMin= 8 EnMin= -1490.97278526400     IErMin= 8 ErrMin= 1.53D-04
 ErrMax= 1.53D-04  0.00D+00 EMaxC= 1.00D-01 BMatC= 3.04D-05 BMatP= 1.52D-04
 IDIUse=3 WtCom= 9.98D-01 WtEn= 1.53D-03
 Coeff-Com: -0.346D-02 0.748D-02 0.169D-01 0.260D-01-0.132D+00-0.102D+00
 Coeff-Com:  0.321D+00 0.866D+00
 Coeff-En:   0.000D+00 0.000D+00 0.000D+00 0.000D+00 0.000D+00 0.000D+00
 Coeff-En:   0.000D+00 0.100D+01
 Coeff:     -0.345D-02 0.746D-02 0.169D-01 0.260D-01-0.132D+00-0.102D+00
 Coeff:      0.321D+00 0.866D+00
 Gap=     0.313 Goal=   None    Shift=    0.000
 Gap=     0.290 Goal=   None    Shift=    0.000
 RMSDP=3.10D-05 MaxDP=1.49D-03 DE=-1.43D-04 OVMax= 3.04D-03

 Cycle   9  Pass 0  IDiag  1:
 RMSU=  1.59D-05    CP:  9.50D-01  1.19D+00  7.52D-01  1.05D+00  2.04D+00
                    CP:  1.57D+00  1.28D+00  1.11D+00
 E= -1490.97281054307     Delta-E=       -0.000025279063 Rises=F Damp=F
 DIIS: error= 8.48D-05 at cycle   9 NSaved=   9.
 NSaved= 9 IEnMin= 9 EnMin= -1490.97281054307     IErMin= 9 ErrMin= 8.48D-05
 ErrMax= 8.48D-05  0.00D+00 EMaxC= 1.00D-01 BMatC= 4.99D-06 BMatP= 3.04D-05
 IDIUse=1 WtCom= 1.00D+00 WtEn= 0.00D+00
 Coeff-Com: -0.930D-03 0.161D-02 0.581D-02 0.136D-01-0.261D-01-0.636D-01
 Coeff-Com:  0.384D-03 0.266D+00 0.803D+00
 Coeff:     -0.930D-03 0.161D-02 0.581D-02 0.136D-01-0.261D-01-0.636D-01
 Coeff:      0.384D-03 0.266D+00 0.803D+00
 Gap=     0.313 Goal=   None    Shift=    0.000
 Gap=     0.291 Goal=   None    Shift=    0.000
 RMSDP=1.01D-05 MaxDP=4.74D-04 DE=-2.53D-05 OVMax= 1.15D-03

 Cycle  10  Pass 0  IDiag  1:
 RMSU=  7.04D-06    CP:  9.50D-01  1.19D+00  7.52D-01  1.05D+00  2.04D+00
                    CP:  1.58D+00  1.32D+00  1.25D+00  1.16D+00
 E= -1490.97281463688     Delta-E=       -0.000004093816 Rises=F Damp=F
 DIIS: error= 5.63D-05 at cycle  10 NSaved=  10.
 NSaved=10 IEnMin=10 EnMin= -1490.97281463688     IErMin=10 ErrMin= 5.63D-05
 ErrMax= 5.63D-05  0.00D+00 EMaxC= 1.00D-01 BMatC= 2.11D-06 BMatP= 4.99D-06
 IDIUse=1 WtCom= 1.00D+00 WtEn= 0.00D+00
 Coeff-Com:  0.693D-03-0.161D-02-0.297D-02-0.236D-02 0.316D-01 0.242D-02
 Coeff-Com: -0.109D+00-0.166D+00 0.384D+00 0.863D+00
 Coeff:      0.693D-03-0.161D-02-0.297D-02-0.236D-02 0.316D-01 0.242D-02
 Coeff:     -0.109D+00-0.166D+00 0.384D+00 0.863D+00
 Gap=     0.314 Goal=   None    Shift=    0.000
 Gap=     0.291 Goal=   None    Shift=    0.000
 RMSDP=7.76D-06 MaxDP=3.72D-04 DE=-4.09D-06 OVMax= 1.01D-03

 Initial convergence to 1.0D-05 achieved.  Increase integral accuracy.
 Cycle  11  Pass 1  IDiag  1:
 E= -1490.97286997788     Delta-E=       -0.000055340995 Rises=F Damp=F
 DIIS: error= 4.47D-05 at cycle   1 NSaved=   1.
 NSaved= 1 IEnMin= 1 EnMin= -1490.97286997788     IErMin= 1 ErrMin= 4.47D-05
 ErrMax= 4.47D-05  0.00D+00 EMaxC= 1.00D-01 BMatC= 3.18D-06 BMatP= 3.18D-06
 IDIUse=1 WtCom= 1.00D+00 WtEn= 0.00D+00
 Coeff-Com:  0.100D+01
 Coeff:      0.100D+01
 Gap=     0.314 Goal=   None    Shift=    0.000
 Gap=     0.291 Goal=   None    Shift=    0.000
 RMSDP=7.76D-06 MaxDP=3.72D-04 DE=-5.53D-05 OVMax= 4.31D-04

 Cycle  12  Pass 1  IDiag  1:
 RMSU=  5.78D-05    CP:  1.00D+00
 E= -1490.97287138381     Delta-E=       -0.000001405934 Rises=F Damp=F
 DIIS: error= 2.65D-05 at cycle   2 NSaved=   2.
 NSaved= 2 IEnMin= 2 EnMin= -1490.97287138381     IErMin= 2 ErrMin= 2.65D-05
 ErrMax= 2.65D-05  0.00D+00 EMaxC= 1.00D-01 BMatC= 4.41D-07 BMatP= 3.18D-06
 IDIUse=1 WtCom= 1.00D+00 WtEn= 0.00D+00
 Coeff-Com:  0.229D-01 0.977D+00
 Coeff:      0.229D-01 0.977D+00
 Gap=     0.314 Goal=   None    Shift=    0.000
 Gap=     0.291 Goal=   None    Shift=    0.000
 RMSDP=4.61D-06 MaxDP=1.40D-04 DE=-1.41D-06 OVMax= 3.58D-04

 Cycle  13  Pass 1  IDiag  1:
 RMSU=  3.17D-06    CP:  1.00D+00  1.06D+00
 E= -1490.97287185326     Delta-E=       -0.000000469452 Rises=F Damp=F
 DIIS: error= 2.30D-05 at cycle   3 NSaved=   3.
 NSaved= 3 IEnMin= 3 EnMin= -1490.97287185326     IErMin= 3 ErrMin= 2.30D-05
 ErrMax= 2.30D-05  0.00D+00 EMaxC= 1.00D-01 BMatC= 3.88D-07 BMatP= 4.41D-07
 IDIUse=1 WtCom= 1.00D+00 WtEn= 0.00D+00
 Coeff-Com: -0.745D-01 0.493D+00 0.582D+00
 Coeff:     -0.745D-01 0.493D+00 0.582D+00
 Gap=     0.314 Goal=   None    Shift=    0.000
 Gap=     0.291 Goal=   None    Shift=    0.000
 RMSDP=1.92D-06 MaxDP=7.53D-05 DE=-4.69D-07 OVMax= 1.87D-04

 Cycle  14  Pass 1  IDiag  1:
 RMSU=  1.77D-06    CP:  1.00D+00  1.07D+00  1.15D+00
 E= -1490.97287211681     Delta-E=       -0.000000263542 Rises=F Damp=F
 DIIS: error= 1.56D-05 at cycle   4 NSaved=   4.
 NSaved= 4 IEnMin= 4 EnMin= -1490.97287211681     IErMin= 4 ErrMin= 1.56D-05
 ErrMax= 1.56D-05  0.00D+00 EMaxC= 1.00D-01 BMatC= 1.34D-07 BMatP= 3.88D-07
 IDIUse=1 WtCom= 1.00D+00 WtEn= 0.00D+00
 Coeff-Com:  0.659D-02-0.587D+00-0.155D+00 0.174D+01
 Coeff:      0.659D-02-0.587D+00-0.155D+00 0.174D+01
 Gap=     0.314 Goal=   None    Shift=    0.000
 Gap=     0.291 Goal=   None    Shift=    0.000
 RMSDP=3.76D-06 MaxDP=1.69D-04 DE=-2.64D-07 OVMax= 4.34D-04

 Cycle  15  Pass 1  IDiag  1:
 RMSU=  1.23D-06    CP:  1.00D+00  1.07D+00  2.06D+00  2.16D+00
 E= -1490.97287252552     Delta-E=       -0.000000408716 Rises=F Damp=F
 DIIS: error= 9.12D-06 at cycle   5 NSaved=   5.
 NSaved= 5 IEnMin= 5 EnMin= -1490.97287252552     IErMin= 5 ErrMin= 9.12D-06
 ErrMax= 9.12D-06  0.00D+00 EMaxC= 1.00D-01 BMatC= 5.99D-08 BMatP= 1.34D-07
 IDIUse=1 WtCom= 1.00D+00 WtEn= 0.00D+00
 Coeff-Com:  0.488D-01-0.611D+00-0.453D+00 0.883D+00 0.113D+01
 Coeff:      0.488D-01-0.611D+00-0.453D+00 0.883D+00 0.113D+01
 Gap=     0.314 Goal=   None    Shift=    0.000
 Gap=     0.291 Goal=   None    Shift=    0.000
 RMSDP=3.51D-06 MaxDP=1.53D-04 DE=-4.09D-07 OVMax= 4.15D-04

 Cycle  16  Pass 1  IDiag  1:
 RMSU=  1.02D-06    CP:  1.00D+00  1.08D+00  2.86D+00  3.00D+00  1.62D+00
 E= -1490.97287271111     Delta-E=       -0.000000185588 Rises=F Damp=F
 DIIS: error= 3.23D-06 at cycle   6 NSaved=   6.
 NSaved= 6 IEnMin= 6 EnMin= -1490.97287271111     IErMin= 6 ErrMin= 3.23D-06
 ErrMax= 3.23D-06  0.00D+00 EMaxC= 1.00D-01 BMatC= 1.13D-08 BMatP= 5.99D-08
 IDIUse=1 WtCom= 1.00D+00 WtEn= 0.00D+00
 Coeff-Com:  0.153D-01-0.829D-01-0.115D+00-0.717D-01 0.383D+00 0.871D+00
 Coeff:      0.153D-01-0.829D-01-0.115D+00-0.717D-01 0.383D+00 0.871D+00
 Gap=     0.314 Goal=   None    Shift=    0.000
 Gap=     0.291 Goal=   None    Shift=    0.000
 RMSDP=1.03D-06 MaxDP=4.35D-05 DE=-1.86D-07 OVMax= 1.13D-04

 Cycle  17  Pass 1  IDiag  1:
 RMSU=  5.18D-07    CP:  1.00D+00  1.08D+00  3.00D+00  3.00D+00  1.95D+00
                    CP:  1.50D+00
 E= -1490.97287273057     Delta-E=       -0.000000019462 Rises=F Damp=F
 DIIS: error= 2.07D-06 at cycle   7 NSaved=   7.
 NSaved= 7 IEnMin= 7 EnMin= -1490.97287273057     IErMin= 7 ErrMin= 2.07D-06
 ErrMax= 2.07D-06  0.00D+00 EMaxC= 1.00D-01 BMatC= 2.94D-09 BMatP= 1.13D-08
 IDIUse=1 WtCom= 1.00D+00 WtEn= 0.00D+00
 Coeff-Com: -0.988D-02 0.162D+00 0.108D+00-0.302D+00-0.231D+00 0.278D+00
 Coeff-Com:  0.994D+00
 Coeff:     -0.988D-02 0.162D+00 0.108D+00-0.302D+00-0.231D+00 0.278D+00
 Coeff:      0.994D+00
 Gap=     0.314 Goal=   None    Shift=    0.000
 Gap=     0.291 Goal=   None    Shift=    0.000
 RMSDP=4.86D-07 MaxDP=2.41D-05 DE=-1.95D-08 OVMax= 6.21D-05

 Cycle  18  Pass 1  IDiag  1:
 RMSU=  3.03D-07    CP:  1.00D+00  1.08D+00  3.00D+00  3.00D+00  2.12D+00
                    CP:  1.78D+00  1.27D+00
 E= -1490.97287273528     Delta-E=       -0.000000004703 Rises=F Damp=F
 DIIS: error= 8.10D-07 at cycle   8 NSaved=   8.
 NSaved= 8 IEnMin= 8 EnMin= -1490.97287273528     IErMin= 8 ErrMin= 8.10D-07
 ErrMax= 8.10D-07  0.00D+00 EMaxC= 1.00D-01 BMatC= 6.20D-10 BMatP= 2.94D-09
 IDIUse=1 WtCom= 1.00D+00 WtEn= 0.00D+00
 Coeff-Com: -0.566D-02 0.602D-01 0.526D-01-0.695D-01-0.133D+00-0.993D-01
 Coeff-Com:  0.257D+00 0.938D+00
 Coeff:     -0.566D-02 0.602D-01 0.526D-01-0.695D-01-0.133D+00-0.993D-01
 Coeff:      0.257D+00 0.938D+00
 Gap=     0.314 Goal=   None    Shift=    0.000
 Gap=     0.291 Goal=   None    Shift=    0.000
 RMSDP=1.74D-07 MaxDP=9.39D-06 DE=-4.70D-09 OVMax= 1.79D-05

 Cycle  19  Pass 1  IDiag  1:
 RMSU=  1.03D-07    CP:  1.00D+00  1.08D+00  3.00D+00  3.00D+00  2.17D+00
                    CP:  1.85D+00  1.43D+00  1.23D+00
 E= -1490.97287273611     Delta-E=       -0.000000000835 Rises=F Damp=F
 DIIS: error= 4.08D-07 at cycle   9 NSaved=   9.
 NSaved= 9 IEnMin= 9 EnMin= -1490.97287273611     IErMin= 9 ErrMin= 4.08D-07
 ErrMax= 4.08D-07  0.00D+00 EMaxC= 1.00D-01 BMatC= 1.60D-10 BMatP= 6.20D-10
 IDIUse=1 WtCom= 1.00D+00 WtEn= 0.00D+00
 Coeff-Com:  0.115D-02-0.312D-01-0.169D-01 0.745D-01 0.287D-01-0.128D+00
 Coeff-Com: -0.234D+00 0.325D+00 0.981D+00
 Coeff:      0.115D-02-0.312D-01-0.169D-01 0.745D-01 0.287D-01-0.128D+00
 Coeff:     -0.234D+00 0.325D+00 0.981D+00
 Gap=     0.314 Goal=   None    Shift=    0.000
 Gap=     0.291 Goal=   None    Shift=    0.000
 RMSDP=9.81D-08 MaxDP=5.18D-06 DE=-8.35D-10 OVMax= 1.30D-05

 Cycle  20  Pass 1  IDiag  1:
 RMSU=  4.65D-08    CP:  1.00D+00  1.08D+00  3.00D+00  3.00D+00  2.18D+00
                    CP:  1.88D+00  1.49D+00  1.43D+00  1.43D+00
 E= -1490.97287273632     Delta-E=       -0.000000000207 Rises=F Damp=F
 DIIS: error= 1.15D-07 at cycle  10 NSaved=  10.
 NSaved=10 IEnMin=10 EnMin= -1490.97287273632     IErMin=10 ErrMin= 1.15D-07
 ErrMax= 1.15D-07  0.00D+00 EMaxC= 1.00D-01 BMatC= 2.06D-11 BMatP= 1.60D-10
 IDIUse=1 WtCom= 1.00D+00 WtEn= 0.00D+00
 Coeff-Com:  0.108D-02-0.172D-01-0.123D-01 0.316D-01 0.256D-01-0.238D-01
 Coeff-Com: -0.102D+00-0.205D-01 0.281D+00 0.836D+00
 Coeff:      0.108D-02-0.172D-01-0.123D-01 0.316D-01 0.256D-01-0.238D-01
 Coeff:     -0.102D+00-0.205D-01 0.281D+00 0.836D+00
 Gap=     0.314 Goal=   None    Shift=    0.000
 Gap=     0.291 Goal=   None    Shift=    0.000
 RMSDP=2.77D-08 MaxDP=1.14D-06 DE=-2.07D-10 OVMax= 3.05D-06

 Cycle  21  Pass 1  IDiag  1:
 RMSU=  1.81D-08    CP:  1.00D+00  1.08D+00  3.00D+00  3.00D+00  2.18D+00
                    CP:  1.88D+00  1.50D+00  1.46D+00  1.57D+00  1.15D+00
 E= -1490.97287273633     Delta-E=       -0.000000000013 Rises=F Damp=F
 DIIS: error= 8.26D-08 at cycle  11 NSaved=  11.
 NSaved=11 IEnMin=11 EnMin= -1490.97287273633     IErMin=11 ErrMin= 8.26D-08
 ErrMax= 8.26D-08  0.00D+00 EMaxC= 1.00D-01 BMatC= 5.88D-12 BMatP= 2.06D-11
 IDIUse=1 WtCom= 1.00D+00 WtEn= 0.00D+00
 Coeff-Com:  0.134D-03 0.553D-03-0.902D-03-0.408D-02 0.228D-02 0.182D-01
 Coeff-Com:  0.124D-01-0.724D-01-0.111D+00 0.285D+00 0.870D+00
 Coeff:      0.134D-03 0.553D-03-0.902D-03-0.408D-02 0.228D-02 0.182D-01
 Coeff:      0.124D-01-0.724D-01-0.111D+00 0.285D+00 0.870D+00
 Gap=     0.314 Goal=   None    Shift=    0.000
 Gap=     0.291 Goal=   None    Shift=    0.000
 RMSDP=1.53D-08 MaxDP=5.97D-07 DE=-1.27D-11 OVMax= 2.04D-06

 Cycle  22  Pass 1  IDiag  1:
 RMSU=  9.40D-09    CP:  1.00D+00  1.08D+00  3.00D+00  3.00D+00  2.18D+00
                    CP:  1.88D+00  1.51D+00  1.47D+00  1.61D+00  1.31D+00
                    CP:  1.30D+00
 E= -1490.97287273633     Delta-E=        0.000000000005 Rises=F Damp=F
 DIIS: error= 4.12D-08 at cycle  12 NSaved=  12.
 NSaved=12 IEnMin=11 EnMin= -1490.97287273633     IErMin=12 ErrMin= 4.12D-08
 ErrMax= 4.12D-08  0.00D+00 EMaxC= 1.00D-01 BMatC= 1.74D-12 BMatP= 5.88D-12
 IDIUse=1 WtCom= 1.00D+00 WtEn= 0.00D+00
 Coeff-Com: -0.233D-03 0.463D-02 0.274D-02-0.931D-02-0.598D-02 0.120D-01
 Coeff-Com:  0.300D-01-0.158D-01-0.110D+00-0.141D+00 0.277D+00 0.955D+00
 Coeff:     -0.233D-03 0.463D-02 0.274D-02-0.931D-02-0.598D-02 0.120D-01
 Coeff:      0.300D-01-0.158D-01-0.110D+00-0.141D+00 0.277D+00 0.955D+00
 Gap=     0.314 Goal=   None    Shift=    0.000
 Gap=     0.291 Goal=   None    Shift=    0.000
 RMSDP=9.70D-09 MaxDP=4.28D-07 DE= 4.55D-12 OVMax= 1.13D-06

 SCF Done:  E(UwB97XD) =  -1490.97287274     A.U. after   22 cycles
            NFock= 22  Conv=0.97D-08     -V/T= 2.0052
 <Sx>= 0.0000 <Sy>= 0.0000 <Sz>= 1.0000 <S**2>= 2.0450 S= 1.0149
 <L.S>=  0.00000000000    
 KE= 1.483294296549D+03 PE=-6.064686743485D+03 EE= 1.813438681104D+03
 Annihilation of the first spin contaminant:
 S**2 before annihilation     2.0450,   after     2.0012
 Leave Link  502 at Fri Mar  6 16:25:59 2026, MaxMem=  2415919104 cpu:             323.5 elap:              36.9
 (Enter /prod/precompiled/gaussian/16c2/g16/l508.exe)
 QCSCF skips out because SCF is already converged.
 Leave Link  508 at Fri Mar  6 16:25:59 2026, MaxMem=  2415919104 cpu:               0.1 elap:               0.1
 (Enter /prod/precompiled/gaussian/16c2/g16/l801.exe)
 DoSCS=F DFT=T ScalE2(SS,OS)=  1.000000  1.000000
 Range of M.O.s used for correlation:     1   272
 NBasis=   272 NAE=    65 NBE=    63 NFC=     0 NFV=     0
 NROrb=    272 NOA=    65 NOB=    63 NVA=   207 NVB=   209

 **** Warning!!: The largest alpha MO coefficient is  0.12337283D+02


 **** Warning!!: The largest beta MO coefficient is  0.12545816D+02

 Leave Link  801 at Fri Mar  6 16:25:59 2026, MaxMem=  2415919104 cpu:               0.1 elap:               0.1
 (Enter /prod/precompiled/gaussian/16c2/g16/l1101.exe)
 Using compressed storage, NAtomX=    24.
 Will process     25 centers per pass.
   1 Symmetry operations used in ECPInt.
 ECPInt:  NShTT=    7750 NPrTT=   30142 LenC2=    7315 LenP2D=   20050.
 LDataN:  DoStor=T MaxTD1= 5 Len=  102
 R6Disp: Adding Grimme-D2 dispersion energy 1st derivatives to the gradient.
 Leave Link 1101 at Fri Mar  6 16:25:59 2026, MaxMem=  2415919104 cpu:               2.3 elap:               0.6
 (Enter /prod/precompiled/gaussian/16c2/g16/l1102.exe)
 Symmetrizing basis deriv contribution to polar:
 IMax=3 JMax=2 DiffMx= 0.00D+00
 Leave Link 1102 at Fri Mar  6 16:26:00 2026, MaxMem=  2415919104 cpu:               0.2 elap:               0.1
 (Enter /prod/precompiled/gaussian/16c2/g16/l1110.exe)
 Forming Gx(P) for the SCF density, NAtomX=    24.
 Integral derivatives from FoFJK, PRISM(SPDF).
 Do as many integral derivatives as possible in FoFJK.
 G2DrvN: MDV=    2415916544.
 G2DrvN: will do    25 centers at a time, making    1 passes.
 Calling FoFCou, ICntrl=  3107 FMM=F I1Cent=   0 AccDes= 0.00D+00.
 FoFJK:  IHMeth= 1 ICntrl=    3107 DoSepK=T KAlg= 0 I1Cent=           0 FoldK=F
 IRaf=         1 NMat=       1 IRICut=       1 DoRegI=T DoRafI=F ISym2E= 0 IDoP0=0 IntGTp=1.
 FoFCou: FMM=F IPFlag=           0 FMFlag=      100000 FMFlg1=           0
         NFxFlg=           0 DoJE=F BraDBF=F KetDBF=F FulRan=T
         wScrn=  0.000000 ICntrl=      3507 IOpCl=  0 I1Cent=           0 NGrid=           0
         NMat0=    1 NMatS0=      1 NMatT0=    0 NMatD0=    1 NMtDS0=    0 NMtDT0=    0
 Symmetry not used in FoFCou.
 End of G2Drv F.D. properties file   721 does not exist.
 End of G2Drv F.D. properties file   722 does not exist.
 End of G2Drv F.D. properties file   788 does not exist.
 Leave Link 1110 at Fri Mar  6 16:26:30 2026, MaxMem=  2415919104 cpu:             349.5 elap:              30.2
 (Enter /prod/precompiled/gaussian/16c2/g16/l1002.exe)
 Minotr:  UHF open shell wavefunction.
          IDoAtm=111111111111111111111111
          Direct CPHF calculation.
          Differentiating once with respect to electric field.
                with respect to dipole field.
          Differentiating once with respect to nuclear coordinates.
          Requested convergence is 1.0D-08 RMS, and 1.0D-07 maximum.
          Secondary convergence is 1.0D-12 RMS, and 1.0D-12 maximum.
          NewPWx=T KeepS1=F KeepF1=F KeepIn=T MapXYZ=F SortEE=F KeepMc=T.
         7195 words used for storage of precomputed grid.
 Two-electron integral symmetry not used.
          MDV=    2415919104 using IRadAn=       1.
          Solving linear equations simultaneously, MaxMat=     384.
 FoF2E skips out because all densities are zero.
 CalDSu exits because no D1Ps are significant.
 FoFJK:  IHMeth= 1 ICntrl=       0 DoSepK=T KAlg= 0 I1Cent=           0 FoldK=F
 IRaf=         1 NMat=      72 IRICut=       1 DoRegI=T DoRafI=F ISym2E= 0 IDoP0=3 IntGTp=3.
 FoFCou: FMM=F IPFlag=           0 FMFlag=      100000 FMFlg1=           0
         NFxFlg=           0 DoJE=F BraDBF=F KetDBF=F FulRan=T
         wScrn=  0.000000 ICntrl=       500 IOpCl=  0 I1Cent=           0 NGrid=           0
         NMat0=   72 NMatS0=     72 NMatT0=    0 NMatD0=   72 NMtDS0=    0 NMtDT0=    0
 Symmetry not used in FoFCou.
          There are    75 degrees of freedom in the 1st order CPHF.  IDoFFX=6 NUNeed=     3.
     72 vectors produced by pass  0 Test12= 3.55D-14 1.33D-09 XBig12= 2.06D+02 3.36D+00.
 AX will form    72 AO Fock derivatives at one time.
     72 vectors produced by pass  1 Test12= 3.55D-14 1.33D-09 XBig12= 2.28D+01 5.86D-01.
     72 vectors produced by pass  2 Test12= 3.55D-14 1.33D-09 XBig12= 1.38D+00 1.41D-01.
     72 vectors produced by pass  3 Test12= 3.55D-14 1.33D-09 XBig12= 3.57D-02 2.25D-02.
     72 vectors produced by pass  4 Test12= 3.55D-14 1.33D-09 XBig12= 7.26D-04 2.34D-03.
     72 vectors produced by pass  5 Test12= 3.55D-14 1.33D-09 XBig12= 9.55D-06 2.89D-04.
     72 vectors produced by pass  6 Test12= 3.55D-14 1.33D-09 XBig12= 1.01D-07 3.06D-05.
     52 vectors produced by pass  7 Test12= 3.55D-14 1.33D-09 XBig12= 9.12D-10 2.82D-06.
     23 vectors produced by pass  8 Test12= 3.55D-14 1.33D-09 XBig12= 8.13D-12 2.94D-07.
      3 vectors produced by pass  9 Test12= 3.55D-14 1.33D-09 XBig12= 7.78D-14 2.29D-08.
      3 vectors produced by pass 10 Test12= 3.55D-14 1.33D-09 XBig12= 7.07D-16 1.81D-09.
 InvSVY:  IOpt=1 It=  1 EMax= 1.42D-14
 Solved reduced A of dimension   585 with    75 vectors.
 FullF1:  Do perturbations      1 to       3.
 Isotropic polarizability for W=    0.000000      160.56 Bohr**3.
 End of Minotr F.D. properties file   721 does not exist.
 End of Minotr F.D. properties file   722 does not exist.
 End of Minotr F.D. properties file   788 does not exist.
 Leave Link 1002 at Fri Mar  6 16:27:54 2026, MaxMem=  2415919104 cpu:             864.6 elap:              84.0
 (Enter /prod/precompiled/gaussian/16c2/g16/l601.exe)
 Copying SCF densities to generalized density rwf, IOpCl= 1 IROHF=0.

 **********************************************************************

            Population analysis using the SCF Density.

 **********************************************************************

 Alpha  occ. eigenvalues -- -101.68488-101.68265 -14.50388 -14.50358 -10.37357
 Alpha  occ. eigenvalues --  -10.37342 -10.36254 -10.36111 -10.32271 -10.32129
 Alpha  occ. eigenvalues --  -10.32015 -10.32011 -10.31956 -10.31708 -10.31699
 Alpha  occ. eigenvalues --  -10.31507  -9.59271  -9.59029  -7.34642  -7.34411
 Alpha  occ. eigenvalues --   -7.33707  -7.33657  -7.33459  -7.33411  -1.17029
 Alpha  occ. eigenvalues --   -1.00327  -0.99574  -0.95410  -0.93963  -0.90769
 Alpha  occ. eigenvalues --   -0.86016  -0.83615  -0.83185  -0.78721  -0.72467
 Alpha  occ. eigenvalues --   -0.71797  -0.71493  -0.66927  -0.64009  -0.61023
 Alpha  occ. eigenvalues --   -0.59243  -0.59100  -0.58315  -0.54653  -0.54316
 Alpha  occ. eigenvalues --   -0.53322  -0.52740  -0.52477  -0.51822  -0.48797
 Alpha  occ. eigenvalues --   -0.48654  -0.47081  -0.46429  -0.44944  -0.44667
 Alpha  occ. eigenvalues --   -0.43880  -0.42829  -0.41784  -0.40293  -0.37182
 Alpha  occ. eigenvalues --   -0.35171  -0.33759  -0.32972  -0.28509  -0.27838
 Alpha virt. eigenvalues --    0.03524   0.04559   0.05382   0.06137   0.11032
 Alpha virt. eigenvalues --    0.11622   0.15676   0.16305   0.18209   0.18471
 Alpha virt. eigenvalues --    0.21053   0.21337   0.21982   0.22279   0.22751
 Alpha virt. eigenvalues --    0.23090   0.27139   0.30075   0.32088   0.33293
 Alpha virt. eigenvalues --    0.34882   0.35422   0.35661   0.36201   0.37507
 Alpha virt. eigenvalues --    0.38162   0.41597   0.42467   0.44788   0.46187
 Alpha virt. eigenvalues --    0.47182   0.48127   0.48517   0.49195   0.50988
 Alpha virt. eigenvalues --    0.52351   0.53831   0.54184   0.54351   0.54781
 Alpha virt. eigenvalues --    0.55636   0.55925   0.57347   0.58465   0.59761
 Alpha virt. eigenvalues --    0.60130   0.60564   0.61229   0.61919   0.62902
 Alpha virt. eigenvalues --    0.64464   0.64883   0.67238   0.68006   0.70099
 Alpha virt. eigenvalues --    0.70381   0.71482   0.72309   0.72727   0.73645
 Alpha virt. eigenvalues --    0.73973   0.74039   0.74824   0.75432   0.76541
 Alpha virt. eigenvalues --    0.78357   0.78511   0.78767   0.79070   0.79319
 Alpha virt. eigenvalues --    0.80259   0.80564   0.81483   0.82378   0.83308
 Alpha virt. eigenvalues --    0.84702   0.86297   0.87181   0.88235   0.88742
 Alpha virt. eigenvalues --    0.89391   0.91010   0.91314   0.94324   0.94930
 Alpha virt. eigenvalues --    0.96022   0.97287   0.97633   0.98825   1.01842
 Alpha virt. eigenvalues --    1.03243   1.05504   1.05883   1.07258   1.10039
 Alpha virt. eigenvalues --    1.13820   1.15683   1.17033   1.21629   1.23112
 Alpha virt. eigenvalues --    1.25462   1.26305   1.27518   1.28693   1.30623
 Alpha virt. eigenvalues --    1.31479   1.32312   1.32849   1.33601   1.34454
 Alpha virt. eigenvalues --    1.35110   1.36296   1.36824   1.37914   1.38904
 Alpha virt. eigenvalues --    1.40331   1.42400   1.46296   1.50200   1.53654
 Alpha virt. eigenvalues --    1.55847   1.59533   1.60167   1.61282   1.62465
 Alpha virt. eigenvalues --    1.73225   1.75020   1.77870   1.77911   1.79121
 Alpha virt. eigenvalues --    1.79352   1.80340   1.81730   1.83625   1.83970
 Alpha virt. eigenvalues --    1.84196   1.84562   1.86947   1.87270   1.88798
 Alpha virt. eigenvalues --    1.91384   1.91622   1.92543   1.96780   1.97809
 Alpha virt. eigenvalues --    1.98632   2.02018   2.02158   2.02457   2.02596
 Alpha virt. eigenvalues --    2.03383   2.07429   2.07693   2.09739   2.11628
 Alpha virt. eigenvalues --    2.14971   2.16153   2.16528   2.20629   2.21843
 Alpha virt. eigenvalues --    2.22094   2.22180   2.22942   2.31028   2.31889
 Alpha virt. eigenvalues --    2.32581   2.34179   2.34949   2.35374   2.36456
 Alpha virt. eigenvalues --    2.37325   2.38222   2.38387   2.46290   2.46921
 Alpha virt. eigenvalues --    2.49049   2.54447   2.58086   2.61390   2.65018
 Alpha virt. eigenvalues --    2.67087   2.67274   2.68766   2.69534   2.70327
 Alpha virt. eigenvalues --    2.74086   2.74883   2.76665   2.80495   2.81173
 Alpha virt. eigenvalues --    2.85281   2.87933   2.89757   2.90117   2.93619
 Alpha virt. eigenvalues --    2.97886   3.04262   3.08457   3.13415   3.14978
 Alpha virt. eigenvalues --    3.18526   3.23220   3.33247   3.34170   3.50763
 Alpha virt. eigenvalues --    3.65770   3.68679
  Beta  occ. eigenvalues -- -101.68450-101.68239 -14.48833 -14.48791 -10.37163
  Beta  occ. eigenvalues --  -10.37125 -10.36232 -10.36106 -10.32379 -10.32108
  Beta  occ. eigenvalues --  -10.31949 -10.31845 -10.31796 -10.31794 -10.31613
  Beta  occ. eigenvalues --  -10.31540  -9.59229  -9.59001  -7.34629  -7.34405
  Beta  occ. eigenvalues --   -7.33619  -7.33574  -7.33394  -7.33358  -1.13501
  Beta  occ. eigenvalues --   -0.99909  -0.99148  -0.94869  -0.93763  -0.89435
  Beta  occ. eigenvalues --   -0.85581  -0.83452  -0.83009  -0.76588  -0.71528
  Beta  occ. eigenvalues --   -0.71375  -0.71135  -0.66310  -0.63041  -0.60043
  Beta  occ. eigenvalues --   -0.58651  -0.58029  -0.56915  -0.54471  -0.53923
  Beta  occ. eigenvalues --   -0.52378  -0.51816  -0.51524  -0.50250  -0.47382
  Beta  occ. eigenvalues --   -0.46512  -0.46323  -0.45974  -0.44205  -0.43246
  Beta  occ. eigenvalues --   -0.42869  -0.41918  -0.40659  -0.38841  -0.35095
  Beta  occ. eigenvalues --   -0.33796  -0.32623  -0.32529
  Beta virt. eigenvalues --   -0.03453  -0.02608   0.04048   0.05187   0.07914
  Beta virt. eigenvalues --    0.08514   0.11758   0.12277   0.15795   0.16438
  Beta virt. eigenvalues --    0.18262   0.18586   0.21175   0.21802   0.22603
  Beta virt. eigenvalues --    0.22725   0.22913   0.23177   0.27786   0.31063
  Beta virt. eigenvalues --    0.32601   0.33505   0.35444   0.35513   0.35925
  Beta virt. eigenvalues --    0.36299   0.37911   0.38436   0.42157   0.42676
  Beta virt. eigenvalues --    0.44980   0.46382   0.47354   0.48416   0.49315
  Beta virt. eigenvalues --    0.49573   0.51346   0.52530   0.54108   0.54475
  Beta virt. eigenvalues --    0.54840   0.55082   0.55836   0.56303   0.57699
  Beta virt. eigenvalues --    0.58986   0.60109   0.60813   0.61213   0.62147
  Beta virt. eigenvalues --    0.62355   0.63443   0.64715   0.65528   0.67593
  Beta virt. eigenvalues --    0.68388   0.70409   0.70813   0.71701   0.72520
  Beta virt. eigenvalues --    0.72898   0.74002   0.74134   0.74331   0.74914
  Beta virt. eigenvalues --    0.75815   0.76847   0.78547   0.78931   0.79330
  Beta virt. eigenvalues --    0.79549   0.80310   0.80699   0.81058   0.81784
  Beta virt. eigenvalues --    0.82640   0.83947   0.84916   0.86649   0.87677
  Beta virt. eigenvalues --    0.88647   0.89102   0.89655   0.91297   0.92715
  Beta virt. eigenvalues --    0.95068   0.95400   0.96237   0.97708   0.98583
  Beta virt. eigenvalues --    0.99260   1.02215   1.03580   1.06215   1.06395
  Beta virt. eigenvalues --    1.08013   1.10671   1.14159   1.16361   1.18052
  Beta virt. eigenvalues --    1.22300   1.23774   1.25881   1.26538   1.28241
  Beta virt. eigenvalues --    1.29309   1.31039   1.31931   1.32573   1.33069
  Beta virt. eigenvalues --    1.33827   1.34718   1.35292   1.36645   1.37125
  Beta virt. eigenvalues --    1.38199   1.39422   1.40690   1.42737   1.47106
  Beta virt. eigenvalues --    1.50978   1.54238   1.56270   1.59798   1.60559
  Beta virt. eigenvalues --    1.61927   1.63003   1.73357   1.75124   1.77975
  Beta virt. eigenvalues --    1.78024   1.79258   1.79494   1.80684   1.82044
  Beta virt. eigenvalues --    1.83797   1.84123   1.84447   1.84829   1.87204
  Beta virt. eigenvalues --    1.87519   1.88963   1.91707   1.92231   1.92735
  Beta virt. eigenvalues --    1.97441   1.98505   1.99181   2.02379   2.02570
  Beta virt. eigenvalues --    2.02624   2.03090   2.03841   2.08201   2.08916
  Beta virt. eigenvalues --    2.10750   2.12347   2.16139   2.17600   2.17992
  Beta virt. eigenvalues --    2.21265   2.22003   2.22431   2.22658   2.24275
  Beta virt. eigenvalues --    2.31431   2.32352   2.32975   2.34454   2.35167
  Beta virt. eigenvalues --    2.35645   2.36914   2.37819   2.38410   2.38583
  Beta virt. eigenvalues --    2.47555   2.47710   2.50211   2.55095   2.60882
  Beta virt. eigenvalues --    2.62448   2.65853   2.67678   2.67878   2.69234
  Beta virt. eigenvalues --    2.69862   2.71042   2.76291   2.77729   2.78870
  Beta virt. eigenvalues --    2.80633   2.81552   2.86373   2.88380   2.89860
  Beta virt. eigenvalues --    2.90207   2.94611   2.98980   3.04982   3.09189
  Beta virt. eigenvalues --    3.13705   3.15316   3.19362   3.24601   3.35378
  Beta virt. eigenvalues --    3.35850   3.52800   3.66048   3.69528
          Condensed to atoms (all electrons):
               1          2          3          4          5          6
     1  C    5.234860   0.189510  -0.052370   0.080560  -0.139509   0.096705
     2  C    0.189510   5.342952   0.251354   0.342111   0.084619  -0.146520
     3  Cl  -0.052370   0.251354  16.926210  -0.059352   0.002946   0.000683
     4  C    0.080560   0.342111  -0.059352   4.958483   0.320003   0.073364
     5  C   -0.139509   0.084619   0.002946   0.320003   5.060775   0.266933
     6  C    0.096705  -0.146520   0.000683   0.073364   0.266933   5.085189
     7  C    0.305117   0.039022   0.001350  -0.105194   0.075368   0.301079
     8  N    0.361542  -0.069188  -0.003887   0.003062  -0.000282   0.007091
     9  N   -0.035265  -0.033653  -0.003773   0.000165   0.000035  -0.000384
    10  C   -0.015017   0.001896  -0.012720  -0.000295  -0.000035   0.000125
    11  C    0.001788   0.001827  -0.000945  -0.000089   0.000019  -0.000020
    12  Cl  -0.024428  -0.001174   0.000050  -0.000380   0.000086  -0.001351
    13  C   -0.000542  -0.000081  -0.000313   0.000006   0.000001   0.000000
    14  C   -0.000030   0.000009   0.000100   0.000001  -0.000000   0.000000
    15  C    0.000139  -0.000001  -0.001258  -0.000001   0.000000  -0.000000
    16  C   -0.002603   0.000606   0.010043   0.000002  -0.000001   0.000002
    17  H    0.015683  -0.066023   0.002065   0.440249  -0.055718   0.013463
    18  H   -0.001619   0.013881  -0.000141  -0.060984   0.446136  -0.065234
    19  H    0.013631  -0.001811   0.000007   0.013210  -0.067417   0.447824
    20  H   -0.065395   0.018621  -0.000063  -0.002667   0.013925  -0.066692
    21  H    0.000037   0.000004  -0.000002   0.000000  -0.000000   0.000000
    22  H   -0.000000  -0.000000   0.000000   0.000000  -0.000000   0.000000
    23  H    0.000000  -0.000001  -0.000016  -0.000000   0.000000   0.000000
    24  H    0.000032  -0.000009   0.001865   0.000007   0.000000   0.000000
               7          8          9         10         11         12
     1  C    0.305117   0.361542  -0.035265  -0.015017   0.001788  -0.024428
     2  C    0.039022  -0.069188  -0.033653   0.001896   0.001827  -0.001174
     3  Cl   0.001350  -0.003887  -0.003773  -0.012720  -0.000945   0.000050
     4  C   -0.105194   0.003062   0.000165  -0.000295  -0.000089  -0.000380
     5  C    0.075368  -0.000282   0.000035  -0.000035   0.000019   0.000086
     6  C    0.301079   0.007091  -0.000384   0.000125  -0.000020  -0.001351
     7  C    5.073706  -0.087810   0.013664  -0.002137   0.000895   0.003512
     8  N   -0.087810   6.760157   0.198094  -0.032356  -0.040760  -0.016156
     9  N    0.013664   0.198094   6.710200   0.383226  -0.073526  -0.006857
    10  C   -0.002137  -0.032356   0.383226   5.182210   0.187266  -0.060829
    11  C    0.000895  -0.040760  -0.073526   0.187266   5.364034   0.257691
    12  Cl   0.003512  -0.016156  -0.006857  -0.060829   0.257691  16.948939
    13  C   -0.000026   0.000827   0.004556   0.085939   0.327848  -0.053857
    14  C   -0.000001   0.000010  -0.000355  -0.138879   0.086881   0.002926
    15  C    0.000003  -0.000346   0.007275   0.097316  -0.145590   0.000653
    16  C   -0.000081   0.012255  -0.084936   0.308663   0.036296   0.001743
    17  H   -0.002144  -0.000055   0.000029   0.000018  -0.000001  -0.000002
    18  H    0.012431   0.000006   0.000000   0.000000  -0.000000   0.000000
    19  H   -0.060918  -0.000089   0.000003   0.000000  -0.000001  -0.000013
    20  H    0.448100  -0.004588   0.000097   0.000059  -0.000015   0.002056
    21  H   -0.000007   0.000052  -0.000074   0.016003  -0.065557   0.001735
    22  H    0.000000   0.000000   0.000005  -0.001704   0.013982  -0.000123
    23  H   -0.000000   0.000003  -0.000090   0.013654  -0.001777   0.000007
    24  H   -0.000001   0.000045  -0.003998  -0.064215   0.018633  -0.000066
              13         14         15         16         17         18
     1  C   -0.000542  -0.000030   0.000139  -0.002603   0.015683  -0.001619
     2  C   -0.000081   0.000009  -0.000001   0.000606  -0.066023   0.013881
     3  Cl  -0.000313   0.000100  -0.001258   0.010043   0.002065  -0.000141
     4  C    0.000006   0.000001  -0.000001   0.000002   0.440249  -0.060984
     5  C    0.000001  -0.000000   0.000000  -0.000001  -0.055718   0.446136
     6  C    0.000000   0.000000  -0.000000   0.000002   0.013463  -0.065234
     7  C   -0.000026  -0.000001   0.000003  -0.000081  -0.002144   0.012431
     8  N    0.000827   0.000010  -0.000346   0.012255  -0.000055   0.000006
     9  N    0.004556  -0.000355   0.007275  -0.084936   0.000029   0.000000
    10  C    0.085939  -0.138879   0.097316   0.308663   0.000018   0.000000
    11  C    0.327848   0.086881  -0.145590   0.036296  -0.000001  -0.000000
    12  Cl  -0.053857   0.002926   0.000653   0.001743  -0.000002   0.000000
    13  C    4.970541   0.314094   0.073744  -0.105691   0.000000   0.000000
    14  C    0.314094   5.061817   0.270827   0.074558  -0.000000  -0.000000
    15  C    0.073744   0.270827   5.080990   0.299113   0.000000  -0.000000
    16  C   -0.105691   0.074558   0.299113   5.072654  -0.000004   0.000000
    17  H    0.000000  -0.000000   0.000000  -0.000004   0.641046  -0.011847
    18  H    0.000000  -0.000000  -0.000000   0.000000  -0.011847   0.649859
    19  H   -0.000000  -0.000000   0.000000  -0.000000  -0.000231  -0.010972
    20  H    0.000006  -0.000000  -0.000000   0.000001   0.000013  -0.000213
    21  H    0.441138  -0.057104   0.013194  -0.002154   0.000000  -0.000000
    22  H   -0.060808   0.445859  -0.064787   0.012453  -0.000000  -0.000000
    23  H    0.012855  -0.066576   0.448126  -0.060957   0.000000  -0.000000
    24  H   -0.002774   0.013776  -0.067673   0.448677  -0.000000   0.000000
              19         20         21         22         23         24
     1  C    0.013631  -0.065395   0.000037  -0.000000   0.000000   0.000032
     2  C   -0.001811   0.018621   0.000004  -0.000000  -0.000001  -0.000009
     3  Cl   0.000007  -0.000063  -0.000002   0.000000  -0.000016   0.001865
     4  C    0.013210  -0.002667   0.000000   0.000000  -0.000000   0.000007
     5  C   -0.067417   0.013925  -0.000000  -0.000000   0.000000   0.000000
     6  C    0.447824  -0.066692   0.000000   0.000000   0.000000   0.000000
     7  C   -0.060918   0.448100  -0.000007   0.000000  -0.000000  -0.000001
     8  N   -0.000089  -0.004588   0.000052   0.000000   0.000003   0.000045
     9  N    0.000003   0.000097  -0.000074   0.000005  -0.000090  -0.003998
    10  C    0.000000   0.000059   0.016003  -0.001704   0.013654  -0.064215
    11  C   -0.000001  -0.000015  -0.065557   0.013982  -0.001777   0.018633
    12  Cl  -0.000013   0.002056   0.001735  -0.000123   0.000007  -0.000066
    13  C   -0.000000   0.000006   0.441138  -0.060808   0.012855  -0.002774
    14  C   -0.000000  -0.000000  -0.057104   0.445859  -0.066576   0.013776
    15  C    0.000000  -0.000000   0.013194  -0.064787   0.448126  -0.067673
    16  C   -0.000000   0.000001  -0.002154   0.012453  -0.060957   0.448677
    17  H   -0.000231   0.000013   0.000000  -0.000000   0.000000  -0.000000
    18  H   -0.010972  -0.000213  -0.000000  -0.000000  -0.000000   0.000000
    19  H    0.650634  -0.011372   0.000000  -0.000000   0.000000  -0.000000
    20  H   -0.011372   0.644026   0.000000   0.000000  -0.000000   0.000000
    21  H    0.000000   0.000000   0.641621  -0.011636  -0.000214   0.000016
    22  H   -0.000000   0.000000  -0.011636   0.647177  -0.010894  -0.000208
    23  H    0.000000  -0.000000  -0.000214  -0.010894   0.647997  -0.011217
    24  H   -0.000000   0.000000   0.000016  -0.000208  -0.011217   0.641641
          Atomic-Atomic Spin Densities.
               1          2          3          4          5          6
     1  C   -0.045136   0.006744   0.003411   0.000046   0.000055   0.003730
     2  C    0.006744   0.164140  -0.025749   0.001441  -0.007239  -0.002964
     3  Cl   0.003411  -0.025749   0.052816   0.001652   0.000265  -0.000008
     4  C    0.000046   0.001441   0.001652  -0.096107   0.000793   0.002786
     5  C    0.000055  -0.007239   0.000265   0.000793   0.158793  -0.001234
     6  C    0.003730  -0.002964  -0.000008   0.002786  -0.001234  -0.095268
     7  C   -0.004109   0.018424   0.000011  -0.003457  -0.006814  -0.000803
     8  N   -0.031618  -0.006310   0.001368  -0.000106   0.000080   0.000076
     9  N   -0.034020   0.014009  -0.010399  -0.000209  -0.000007   0.000030
    10  C    0.002700  -0.000587   0.000169   0.000007  -0.000010  -0.000025
    11  C    0.001904  -0.000685   0.000448   0.000055  -0.000007   0.000005
    12  Cl   0.000183   0.000464  -0.000004  -0.000049  -0.000006  -0.000140
    13  C   -0.000055   0.000100  -0.000039  -0.000005  -0.000000  -0.000000
    14  C   -0.000014  -0.000006  -0.000000  -0.000000   0.000000   0.000000
    15  C   -0.000042   0.000010  -0.000095  -0.000000  -0.000000   0.000000
    16  C    0.001005  -0.000282   0.001438   0.000008   0.000000  -0.000000
    17  H   -0.000103  -0.001304   0.000951  -0.000907   0.000048   0.000082
    18  H    0.000019  -0.000086  -0.000003   0.000183   0.001193   0.000080
    19  H   -0.000055   0.000044   0.000000   0.000006  -0.000274   0.000095
    20  H   -0.004266  -0.000065   0.000001  -0.000022  -0.000113  -0.000175
    21  H   -0.000009  -0.000009   0.000002   0.000000   0.000000   0.000000
    22  H    0.000000   0.000000  -0.000000  -0.000000  -0.000000  -0.000000
    23  H    0.000000  -0.000000   0.000002   0.000000   0.000000   0.000000
    24  H   -0.000027  -0.000007   0.000063   0.000003   0.000000   0.000000
               7          8          9         10         11         12
     1  C   -0.004109  -0.031618  -0.034020   0.002700   0.001904   0.000183
     2  C    0.018424  -0.006310   0.014009  -0.000587  -0.000685   0.000464
     3  Cl   0.000011   0.001368  -0.010399   0.000169   0.000448  -0.000004
     4  C   -0.003457  -0.000106  -0.000209   0.000007   0.000055  -0.000049
     5  C   -0.006814   0.000080  -0.000007  -0.000010  -0.000007  -0.000006
     6  C   -0.000803   0.000076   0.000030  -0.000025   0.000005  -0.000140
     7  C    0.161827  -0.012393   0.000918   0.000815  -0.000190   0.003097
     8  N   -0.012393   1.096259  -0.228536  -0.028886   0.010538  -0.020746
     9  N    0.000918  -0.228536   1.088982  -0.030154  -0.007798   0.002787
    10  C    0.000815  -0.028886  -0.030154  -0.068267   0.011576   0.004790
    11  C   -0.000190   0.010538  -0.007798   0.011576   0.181987  -0.031068
    12  Cl   0.003097  -0.020746   0.002787   0.004790  -0.031068   0.078123
    13  C    0.000019  -0.000341  -0.000076   0.000365   0.002131   0.001536
    14  C    0.000000   0.000005   0.000094  -0.000157  -0.008264   0.000330
    15  C    0.000000   0.000028   0.000262   0.005412  -0.003911  -0.000007
    16  C   -0.000013   0.000506  -0.014470  -0.002810   0.020334  -0.000029
    17  H    0.000064  -0.000013   0.000042  -0.000005  -0.000008   0.000002
    18  H   -0.000066   0.000000  -0.000000   0.000000   0.000000  -0.000000
    19  H   -0.000577   0.000006   0.000001   0.000000  -0.000000   0.000002
    20  H    0.002571   0.002505   0.000153  -0.000035  -0.000015   0.000021
    21  H   -0.000007   0.000064  -0.000021  -0.000072  -0.001512   0.001354
    22  H    0.000000  -0.000000  -0.000000   0.000003  -0.000082  -0.000003
    23  H   -0.000000   0.000001   0.000003  -0.000061   0.000071   0.000000
    24  H   -0.000003   0.000146   0.002807  -0.004741   0.000106  -0.000001
              13         14         15         16         17         18
     1  C   -0.000055  -0.000014  -0.000042   0.001005  -0.000103   0.000019
     2  C    0.000100  -0.000006   0.000010  -0.000282  -0.001304  -0.000086
     3  Cl  -0.000039  -0.000000  -0.000095   0.001438   0.000951  -0.000003
     4  C   -0.000005  -0.000000  -0.000000   0.000008  -0.000907   0.000183
     5  C   -0.000000   0.000000  -0.000000   0.000000   0.000048   0.001193
     6  C   -0.000000   0.000000   0.000000  -0.000000   0.000082   0.000080
     7  C    0.000019   0.000000   0.000000  -0.000013   0.000064  -0.000066
     8  N   -0.000341   0.000005   0.000028   0.000506  -0.000013   0.000000
     9  N   -0.000076   0.000094   0.000262  -0.014470   0.000042  -0.000000
    10  C    0.000365  -0.000157   0.005412  -0.002810  -0.000005   0.000000
    11  C    0.002131  -0.008264  -0.003911   0.020334  -0.000008   0.000000
    12  Cl   0.001536   0.000330  -0.000007  -0.000029   0.000002  -0.000000
    13  C   -0.106452   0.000876   0.003514  -0.004754   0.000000  -0.000000
    14  C    0.000876   0.180003  -0.002724  -0.006600   0.000000  -0.000000
    15  C    0.003514  -0.002724  -0.103397  -0.003525   0.000000  -0.000000
    16  C   -0.004754  -0.006600  -0.003525   0.182006  -0.000004   0.000000
    17  H    0.000000   0.000000   0.000000  -0.000004   0.005763  -0.000006
    18  H   -0.000000  -0.000000  -0.000000   0.000000  -0.000006  -0.007936
    19  H    0.000000   0.000000   0.000000  -0.000000   0.000002   0.000045
    20  H    0.000005   0.000000   0.000000  -0.000003   0.000006  -0.000001
    21  H   -0.001639   0.000230   0.000100   0.000054   0.000000  -0.000000
    22  H    0.000232   0.001321   0.000042  -0.000042  -0.000000   0.000000
    23  H   -0.000022  -0.000273  -0.000064  -0.000512  -0.000000  -0.000000
    24  H   -0.000077  -0.000108  -0.000356   0.002167  -0.000000  -0.000000
              19         20         21         22         23         24
     1  C   -0.000055  -0.004266  -0.000009   0.000000   0.000000  -0.000027
     2  C    0.000044  -0.000065  -0.000009   0.000000  -0.000000  -0.000007
     3  Cl   0.000000   0.000001   0.000002  -0.000000   0.000002   0.000063
     4  C    0.000006  -0.000022   0.000000  -0.000000   0.000000   0.000003
     5  C   -0.000274  -0.000113   0.000000  -0.000000   0.000000   0.000000
     6  C    0.000095  -0.000175   0.000000  -0.000000   0.000000   0.000000
     7  C   -0.000577   0.002571  -0.000007   0.000000  -0.000000  -0.000003
     8  N    0.000006   0.002505   0.000064  -0.000000   0.000001   0.000146
     9  N    0.000001   0.000153  -0.000021  -0.000000   0.000003   0.002807
    10  C    0.000000  -0.000035  -0.000072   0.000003  -0.000061  -0.004741
    11  C   -0.000000  -0.000015  -0.001512  -0.000082   0.000071   0.000106
    12  Cl   0.000002   0.000021   0.001354  -0.000003   0.000000  -0.000001
    13  C    0.000000   0.000005  -0.001639   0.000232  -0.000022  -0.000077
    14  C    0.000000   0.000000   0.000230   0.001321  -0.000273  -0.000108
    15  C    0.000000   0.000000   0.000100   0.000042  -0.000064  -0.000356
    16  C   -0.000000  -0.000003   0.000054  -0.000042  -0.000512   0.002167
    17  H    0.000002   0.000006   0.000000  -0.000000  -0.000000  -0.000000
    18  H    0.000045  -0.000001  -0.000000   0.000000  -0.000000  -0.000000
    19  H    0.004227   0.000194  -0.000000  -0.000000  -0.000000  -0.000000
    20  H    0.000194  -0.006155  -0.000000  -0.000000  -0.000000  -0.000000
    21  H   -0.000000  -0.000000   0.006860  -0.000012   0.000003   0.000008
    22  H   -0.000000  -0.000000  -0.000012  -0.008966   0.000057  -0.000001
    23  H   -0.000000  -0.000000   0.000003   0.000057   0.004666   0.000221
    24  H   -0.000000  -0.000000   0.000008  -0.000001   0.000221  -0.005581
 Mulliken charges and spin densities:
               1          2
     1  C    0.037172  -0.099658
     2  C    0.032051   0.160081
     3  Cl  -0.061831   0.026298
     4  C   -0.002261  -0.093879
     5  C   -0.007885   0.145523
     6  C   -0.012259  -0.093735
     7  C   -0.015930   0.159314
     8  N   -0.087627   0.782631
     9  N   -0.074438   0.784396
    10  C    0.051810  -0.109974
    11  C    0.031123   0.175613
    12  Cl  -0.054165   0.040634
    13  C   -0.007462  -0.104683
    14  C   -0.007914   0.164713
    15  C   -0.011724  -0.104754
    16  C   -0.020635   0.174472
    17  H    0.023457   0.004611
    18  H    0.028697  -0.006576
    19  H    0.027515   0.003716
    20  H    0.024099  -0.005395
    21  H    0.022949   0.005394
    22  H    0.030686  -0.007452
    23  H    0.029101   0.004091
    24  H    0.025469  -0.005381
 Sum of Mulliken charges =  -0.00000   2.00000
 Mulliken charges and spin densities with hydrogens summed into heavy atoms:
               1          2
     1  C    0.037172  -0.099658
     2  C    0.032051   0.160081
     3  Cl  -0.061831   0.026298
     4  C    0.021196  -0.089269
     5  C    0.020812   0.138947
     6  C    0.015256  -0.090019
     7  C    0.008169   0.153919
     8  N   -0.087627   0.782631
     9  N   -0.074438   0.784396
    10  C    0.051810  -0.109974
    11  C    0.031123   0.175613
    12  Cl  -0.054165   0.040634
    13  C    0.015487  -0.099289
    14  C    0.022772   0.157261
    15  C    0.017377  -0.100663
    16  C    0.004833   0.169091
 APT charges:
               1
     1  C    0.188542
     2  C    0.239264
     3  Cl  -0.246796
     4  C   -0.105510
     5  C   -0.021941
     6  C   -0.031891
     7  C   -0.042971
     8  N   -0.195037
     9  N   -0.176881
    10  C    0.169905
    11  C    0.235014
    12  Cl  -0.249814
    13  C   -0.103062
    14  C   -0.017055
    15  C   -0.035069
    16  C   -0.028987
    17  H    0.060072
    18  H    0.041694
    19  H    0.039762
    20  H    0.066043
    21  H    0.061989
    22  H    0.042282
    23  H    0.042055
    24  H    0.068390
 Sum of APT charges =   0.00000
 APT charges with hydrogens summed into heavy atoms:
               1
     1  C    0.188542
     2  C    0.239264
     3  Cl  -0.246796
     4  C   -0.045439
     5  C    0.019753
     6  C    0.007871
     7  C    0.023073
     8  N   -0.195037
     9  N   -0.176881
    10  C    0.169905
    11  C    0.235014
    12  Cl  -0.249814
    13  C   -0.041072
    14  C    0.025227
    15  C    0.006987
    16  C    0.039403
 Electronic spatial extent (au):  <R**2>=           5430.0613
 Charge=             -0.0000 electrons
 Dipole moment (field-independent basis, Debye):
    X=              1.5674    Y=              1.4259    Z=             -0.9465  Tot=              2.3208
 Quadrupole moment (field-independent basis, Debye-Ang):
   XX=            -92.9455   YY=           -108.2123   ZZ=            -95.4586
   XY=             -3.3498   XZ=              7.9442   YZ=              0.4503
 Traceless Quadrupole moment (field-independent basis, Debye-Ang):
   XX=              5.9267   YY=             -9.3402   ZZ=              3.4135
   XY=             -3.3498   XZ=              7.9442   YZ=              0.4503
 Octapole moment (field-independent basis, Debye-Ang**2):
  XXX=           -335.5156  YYY=            448.1757  ZZZ=            -54.7806  XYY=           -147.4476
  XXY=            115.4940  XXZ=              2.9354  XZZ=           -129.6045  YZZ=            133.2180
  YYZ=            -34.9312  XYZ=             -5.3139
 Hexadecapole moment (field-independent basis, Debye-Ang**3):
 XXXX=          -2821.7446 YYYY=          -2470.9163 ZZZZ=          -1593.9667 XXXY=            861.0664
 XXXZ=           -492.0178 YYYX=           1063.2707 YYYZ=            231.1136 ZZZX=           -483.1890
 ZZZY=            185.6547 XXYY=           -949.9811 XXZZ=           -756.9694 YYZZ=           -681.6508
 XXYZ=             46.8874 YYXZ=           -206.3471 ZZXY=            322.4855
 N-N= 1.276980893096D+03 E-N=-6.064686737570D+03  KE= 1.483294296549D+03
  Exact polarizability:     167.303     -19.841     129.339      51.258      -1.567     185.025
 Approx polarizability:     176.959       0.699     159.124      36.374      11.196     223.805
                          Isotropic Fermi Contact Couplings
        Atom                 a.u.       MegaHertz       Gauss      10(-4) cm-1
     1  C(13)              0.08599      48.33202      17.24607      16.12183
     2  C(13)              0.02891      16.25236       5.79925       5.42120
     3  Cl(35)             0.01459       3.19789       1.14109       1.06670
     4  C(13)             -0.01807     -10.15746      -3.62443      -3.38816
     5  C(13)              0.02486      13.97301       4.98592       4.66089
     6  C(13)             -0.02065     -11.60791      -4.14199      -3.87198
     7  C(13)              0.02119      11.90878       4.24935       3.97234
     8  N(14)              0.45159      72.95520      26.03223      24.33523
     9  N(14)              0.45107      72.87072      26.00208      24.30705
    10  C(13)              0.07289      40.97345      14.62035      13.66727
    11  C(13)              0.03083      17.32788       6.18302       5.77996
    12  Cl(35)             0.02205       4.83475       1.72516       1.61270
    13  C(13)             -0.01987     -11.16783      -3.98496      -3.72519
    14  C(13)              0.02822      15.86437       5.66080       5.29178
    15  C(13)             -0.02306     -12.96252      -4.62535      -4.32383
    16  C(13)              0.02434      13.68358       4.88264       4.56435
    17  H(1)               0.00122       2.72007       0.97059       0.90732
    18  H(1)              -0.00199      -4.45211      -1.58862      -1.48507
    19  H(1)               0.00114       2.54543       0.90827       0.84906
    20  H(1)              -0.00211      -4.71648      -1.68296      -1.57325
    21  H(1)               0.00137       3.07130       1.09592       1.02448
    22  H(1)              -0.00226      -5.05465      -1.80363      -1.68605
    23  H(1)               0.00124       2.77484       0.99013       0.92559
    24  H(1)              -0.00224      -5.01020      -1.78776      -1.67122
 --------------------------------------------------------
       Center         ----  Spin Dipole Couplings  ----
                      3XX-RR        3YY-RR        3ZZ-RR
 --------------------------------------------------------
     1   Atom       -0.167963      0.130725      0.037238
     2   Atom        0.119095     -0.060485     -0.058610
     3   Atom        0.055144      0.028385     -0.083530
     4   Atom       -0.067389      0.041395      0.025994
     5   Atom        0.112029     -0.067938     -0.044091
     6   Atom       -0.064538      0.040038      0.024501
     7   Atom        0.123641     -0.076573     -0.047068
     8   Atom        0.717076     -0.403404     -0.313672
     9   Atom       -0.746365      1.250348     -0.503983
    10   Atom        0.222794     -0.199647     -0.023147
    11   Atom       -0.081437      0.147481     -0.066044
    12   Atom        0.116001      0.073114     -0.189115
    13   Atom        0.052775     -0.084098      0.031322
    14   Atom       -0.068891      0.138978     -0.070087
    15   Atom        0.048624     -0.079000      0.030375
    16   Atom       -0.071996      0.128599     -0.056603
    17   Atom       -0.003168      0.001224      0.001944
    18   Atom       -0.001187      0.002654     -0.001467
    19   Atom       -0.002986      0.003424     -0.000438
    20   Atom       -0.005751     -0.001561      0.007312
    21   Atom        0.006753     -0.004210     -0.002543
    22   Atom        0.013375     -0.001987     -0.011388
    23   Atom        0.005743     -0.003751     -0.001992
    24   Atom       -0.004321     -0.007798      0.012120
 --------------------------------------------------------
                        XY            XZ            YZ
 --------------------------------------------------------
     1   Atom       -0.034199      0.087694     -0.107899
     2   Atom        0.009742     -0.071261     -0.000621
     3   Atom        0.035705     -0.088349     -0.110921
     4   Atom       -0.002906      0.041077     -0.007106
     5   Atom       -0.001949     -0.068340     -0.006753
     6   Atom       -0.002841      0.039184     -0.004882
     7   Atom        0.001117     -0.053017     -0.007367
     8   Atom       -0.083742     -0.935985      0.301704
     9   Atom        0.056191     -0.304568     -0.121613
    10   Atom        0.013542      0.004488      0.044359
    11   Atom       -0.017440     -0.008338     -0.051195
[...]
    17  H    0.023535   0.006302
    18  H    0.032178  -0.009871
    19  H    0.030741   0.004696
    20  H    0.025960  -0.006552
    21  H    0.023530   0.006306
    22  H    0.032169  -0.009877
    23  H    0.030728   0.004698
    24  H    0.025938  -0.006560
 Sum of Mulliken charges =  -0.00000   2.00000
 Mulliken charges and spin densities with hydrogens summed into heavy atoms:
               1          2
     1  C    0.063376  -0.160273
     2  C    0.012890   0.225363
     3  Cl  -0.063719   0.025605
     4  C    0.008534  -0.122784
     5  C    0.022593   0.208846
     6  C    0.022301  -0.125755
     7  C    0.003060   0.202302
     8  N   -0.068985   0.746612
     9  N   -0.069177   0.746718
    10  C    0.063496  -0.160419
    11  C    0.012814   0.225458
    12  Cl  -0.063683   0.025609
    13  C    0.008529  -0.122839
    14  C    0.022585   0.208957
    15  C    0.022318  -0.125813
    16  C    0.003066   0.202413
 APT charges:
               1
     1  C   -0.465976
     2  C   -0.309287
     3  Cl   0.023498
     4  C   -0.475503
     5  C   -0.474084
     6  C   -0.462536
     7  C   -0.575282
     8  N    0.112857
     9  N   -0.182000
    10  C   -0.639780
    11  C   -0.462503
    12  Cl   0.029756
    13  C   -0.453642
    14  C   -0.601078
    15  C   -0.525672
    16  C   -0.340105
    17  H    0.410826
    18  H    0.712655
    19  H    0.794882
    20  H    0.567819
    21  H    0.817284
    22  H    1.299046
    23  H    1.000672
    24  H    0.198152
 Sum of APT charges =  -0.00000
 APT charges with hydrogens summed into heavy atoms:
               1
     1  C   -0.465976
     2  C   -0.309287
     3  Cl   0.023498
     4  C   -0.064678
     5  C    0.238571
     6  C    0.332346
     7  C   -0.007463
     8  N    0.112857
     9  N   -0.182000
    10  C   -0.639780
    11  C   -0.462503
    12  Cl   0.029756
    13  C    0.363642
    14  C    0.697968
    15  C    0.475001
    16  C   -0.141953
 Electronic spatial extent (au):  <R**2>=           6042.6227
 Charge=             -0.0000 electrons
 Dipole moment (field-independent basis, Debye):
    X=              0.4516    Y=              0.4946    Z=             -0.3038  Tot=              0.7354
 Quadrupole moment (field-independent basis, Debye-Ang):
   XX=            -91.5530   YY=           -104.3471   ZZ=            -95.2251
   XY=             -4.8213   XZ=             10.4238   YZ=             -3.0521
 Traceless Quadrupole moment (field-independent basis, Debye-Ang):
   XX=              5.4887   YY=             -7.3054   ZZ=              1.8167
   XY=             -4.8213   XZ=             10.4238   YZ=             -3.0521
 Octapole moment (field-independent basis, Debye-Ang**2):
  XXX=           -389.5143  YYY=            381.8353  ZZZ=             -4.1230  XYY=           -160.4818
  XXY=             82.0347  XXZ=             15.6127  XZZ=           -148.6977  YZZ=            105.4437
  YYZ=            -12.9391  XYZ=            -16.1806
 Hexadecapole moment (field-independent basis, Debye-Ang**3):
 XXXX=          -3781.3160 YYYY=          -2228.0001 ZZZZ=          -1659.3334 XXXY=            919.3945
 XXXZ=           -602.6236 YYYX=           1210.2640 YYYZ=            333.8234 ZZZX=           -629.3204
 ZZZY=            256.2107 XXYY=          -1019.2755 XXZZ=           -888.1175 YYZZ=           -626.8041
 XXYZ=             26.1868 YYXZ=           -222.4972 ZZXY=            333.6495
 N-N= 1.235877737479D+03 E-N=-5.982405019316D+03  KE= 1.483169479417D+03
  Exact polarizability:       0.000       0.000       0.000       0.000       0.000       0.000
 Approx polarizability:     200.118     -15.440     152.505      57.771      -9.722     214.076
                          Isotropic Fermi Contact Couplings
        Atom                 a.u.       MegaHertz       Gauss      10(-4) cm-1
     1  C(13)              0.02653      14.91141       5.32076       4.97391
     2  C(13)              0.05050      28.38395      10.12810       9.46787
     3  Cl(35)             0.01396       3.06009       1.09192       1.02074
     4  C(13)             -0.02426     -13.63625      -4.86575      -4.54856
     5  C(13)              0.03743      21.03720       7.50660       7.01726
     6  C(13)             -0.03001     -16.86715      -6.01862      -5.62628
     7  C(13)              0.03752      21.08721       7.52444       7.03394
     8  N(14)              0.40480      65.39652      23.33511      21.81393
     9  N(14)              0.40473      65.38580      23.33128      21.81035
    10  C(13)              0.02642      14.85021       5.29892       4.95350
    11  C(13)              0.05054      28.41013      10.13744       9.47660
    12  Cl(35)             0.01405       3.07976       1.09894       1.02730
    13  C(13)             -0.02426     -13.63630      -4.86577      -4.54858
    14  C(13)              0.03745      21.04844       7.51061       7.02101
    15  C(13)             -0.03002     -16.87507      -6.02144      -5.62892
    16  C(13)              0.03756      21.11219       7.53335       7.04227
    17  H(1)               0.00177       3.95082       1.40975       1.31785
    18  H(1)              -0.00298      -6.66531      -2.37835      -2.22331
    19  H(1)               0.00140       3.12487       1.11503       1.04234
    20  H(1)              -0.00285      -6.37980      -2.27647      -2.12807
    21  H(1)               0.00177       3.95170       1.41007       1.31815
    22  H(1)              -0.00298      -6.66982      -2.37996      -2.22481
    23  H(1)               0.00140       3.12657       1.11564       1.04291
    24  H(1)              -0.00286      -6.38458      -2.27818      -2.12967
 --------------------------------------------------------
       Center         ----  Spin Dipole Couplings  ----
                      3XX-RR        3YY-RR        3ZZ-RR
 --------------------------------------------------------
     1   Atom       -0.081643      0.114132     -0.032490
     2   Atom        0.073266     -0.086724      0.013458
     3   Atom        0.013266     -0.024184      0.010919
     4   Atom       -0.044002      0.051809     -0.007807
     5   Atom        0.088060     -0.106215      0.018155
     6   Atom       -0.044682      0.054567     -0.009886
     7   Atom        0.080754     -0.103004      0.022250
     8   Atom        0.236659     -0.222455     -0.014204
     9   Atom       -0.645426      0.987054     -0.341628
    10   Atom        0.180857     -0.205860      0.025003
    11   Atom       -0.094574      0.203564     -0.108989
    12   Atom        0.037976      0.145703     -0.183678
    13   Atom        0.059499     -0.108481      0.048982
    14   Atom       -0.092822      0.204651     -0.111829
    15   Atom        0.056359     -0.105324      0.048965
    16   Atom       -0.087483      0.186443     -0.098961
    17   Atom       -0.000655     -0.000815      0.001470
    18   Atom        0.000177     -0.001182      0.001005
    19   Atom       -0.002461      0.004059     -0.001597
    20   Atom       -0.003560      0.004361     -0.000801
    21   Atom        0.005162     -0.004508     -0.000654
    22   Atom        0.014622     -0.001024     -0.013597
    23   Atom        0.006774     -0.003892     -0.002882
    24   Atom       -0.002849     -0.009231      0.012080
 --------------------------------------------------------
                        XY            XZ            YZ
 --------------------------------------------------------
     1   Atom       -0.063748      0.158811     -0.062160
     2   Atom       -0.003759     -0.162694      0.005890
     3   Atom       -0.014504     -0.155881     -0.098048
     4   Atom       -0.004272      0.083482     -0.007905
     5   Atom       -0.005366     -0.152836     -0.005849
     6   Atom       -0.003020      0.079086     -0.004531
     7   Atom       -0.005217     -0.136775     -0.004217
     8   Atom        0.135708     -0.900146      0.272004
     9   Atom        0.217403     -0.360199      0.157089
    10   Atom       -0.069519      0.027915     -0.007844
    11   Atom        0.039421     -0.015623      0.012317
    12   Atom        0.076718     -0.020369      0.003639
    13   Atom       -0.022222      0.006615     -0.002973
    14   Atom        0.040248      0.004319      0.000554
    15   Atom       -0.022135      0.001500     -0.001406
    16   Atom        0.037293      0.009585      0.001611
    17   Atom       -0.002874      0.005005     -0.003558
    18   Atom       -0.010170      0.001887     -0.012620
    19   Atom       -0.002796      0.002016     -0.003522
    20   Atom        0.004881      0.007076      0.006158
    21   Atom       -0.001411      0.004632     -0.000683
    22   Atom       -0.002251      0.007863     -0.000994
    23   Atom       -0.001472     -0.000141     -0.000015
    24   Atom       -0.001024     -0.002716      0.000107
 --------------------------------------------------------


 ---------------------------------------------------------------------------------
              Anisotropic Spin Dipole Couplings in Principal Axis System
 ---------------------------------------------------------------------------------

       Atom             a.u.   MegaHertz   Gauss  10(-4) cm-1        Axes

              Baa    -0.2180   -29.250   -10.437    -9.757  0.7636  0.0258 -0.6452
     1 C(13)  Bbb     0.0202     2.707     0.966     0.903  0.4564  0.6852  0.5676
              Bcc     0.1978    26.543     9.471     8.854 -0.4567  0.7279 -0.5114
 
              Baa    -0.1222   -16.396    -5.851    -5.469  0.6379 -0.0599  0.7678
     2 C(13)  Bbb    -0.0867   -11.641    -4.154    -3.883  0.0556  0.9980  0.0316
              Bcc     0.2089    28.037    10.004     9.352  0.7681 -0.0225 -0.6400
 
              Baa    -0.1858    -9.722    -3.469    -3.243  0.5669  0.4640  0.6807
     3 Cl(35) Bbb    -0.0003    -0.017    -0.006    -0.006 -0.5347  0.8358 -0.1244
              Bcc     0.1861     9.738     3.475     3.248 -0.6266 -0.2934  0.7220
 
              Baa    -0.1113   -14.941    -5.331    -4.984  0.7781 -0.0101 -0.6281
     4 C(13)  Bbb     0.0460     6.178     2.204     2.061  0.3509  0.8363  0.4212
              Bcc     0.0653     8.763     3.127     2.923  0.5211 -0.5481  0.6542
 
              Baa    -0.1130   -15.159    -5.409    -5.056  0.4054  0.7611  0.5064
     5 C(13)  Bbb    -0.0969   -13.006    -4.641    -4.338 -0.4735  0.6487 -0.5958
              Bcc     0.2099    28.165    10.050     9.395  0.7820 -0.0017 -0.6233
 
              Baa    -0.1083   -14.528    -5.184    -4.846  0.7793 -0.0030 -0.6266
     6 C(13)  Bbb     0.0487     6.534     2.331     2.179  0.4622  0.6781  0.5715
              Bcc     0.0596     7.994     2.852     2.667 -0.4232  0.7350 -0.5298
 
              Baa    -0.1055   -14.160    -5.053    -4.723  0.2280  0.9340  0.2749
     7 C(13)  Bbb    -0.0859   -11.521    -4.111    -3.843  0.5859 -0.3572  0.7274
              Bcc     0.1914    25.681     9.164     8.566  0.7776 -0.0048 -0.6287
 
              Baa    -0.9219   -35.557   -12.688   -11.861  0.5932 -0.3891  0.7048
     8 N(14)  Bbb    -0.1030    -3.971    -1.417    -1.325  0.3026  0.9190  0.2527
              Bcc     1.0249    39.528    14.105    13.185  0.7461 -0.0634 -0.6629
 
              Baa    -0.9221   -35.562   -12.689   -11.862  0.8241 -0.1390  0.5491
     9 N(14)  Bbb    -0.1027    -3.961    -1.413    -1.321 -0.5555 -0.0090  0.8315
              Bcc     1.0248    39.523    14.103    13.184  0.1106  0.9902  0.0847
 
              Baa    -0.2180   -29.255   -10.439    -9.759  0.1709  0.9852  0.0122
    10 C(13)  Bbb     0.0202     2.714     0.968     0.905 -0.1643  0.0163  0.9863
              Bcc     0.1978    26.542     9.471     8.853  0.9715 -0.1705  0.1647
 
              Baa    -0.1222   -16.404    -5.853    -5.472  0.5955 -0.1022  0.7968
    11 C(13)  Bbb    -0.0868   -11.644    -4.155    -3.884  0.7933 -0.0821 -0.6033
              Bcc     0.2090    28.048    10.008     9.356  0.1271  0.9914  0.0322
 
              Baa    -0.1859    -9.730    -3.472    -3.245  0.1023 -0.0346  0.9942
    12 Cl(35) Bbb     0.0002     0.012     0.004     0.004  0.8806 -0.4617 -0.1067
              Bcc     0.1857     9.718     3.468     3.242  0.4627  0.8864 -0.0168
 
              Baa    -0.1114   -14.949    -5.334    -4.986  0.1284  0.9916  0.0131
    13 C(13)  Bbb     0.0461     6.181     2.205     2.062 -0.3895  0.0383  0.9202
              Bcc     0.0653     8.768     3.129     2.925  0.9120 -0.1233  0.3912
 
              Baa    -0.1130   -15.167    -5.412    -5.059 -0.2707  0.0326  0.9621
    14 C(13)  Bbb    -0.0970   -13.014    -4.644    -4.341  0.9536 -0.1277  0.2726
              Bcc     0.2100    28.181    10.056     9.400  0.1318  0.9913  0.0035
 
              Baa    -0.1083   -14.534    -5.186    -4.848  0.1332  0.9911  0.0076
    15 C(13)  Bbb     0.0487     6.536     2.332     2.180 -0.1553  0.0133  0.9878
              Bcc     0.0596     7.998     2.854     2.668  0.9789 -0.1327  0.1556
 
              Baa    -0.1056   -14.167    -5.055    -4.725 -0.5742  0.0688  0.8158
    16 C(13)  Bbb    -0.0859   -11.525    -4.112    -3.844  0.8079 -0.1141  0.5782
              Bcc     0.1915    25.692     9.167     8.570  0.1328  0.9911  0.0099
 
              Baa    -0.0047    -2.513    -0.897    -0.838  0.7761 -0.0033 -0.6306
    17 H(1)   Bbb    -0.0032    -1.713    -0.611    -0.571  0.2948  0.8859  0.3581
              Bcc     0.0079     4.225     1.508     1.409  0.5574 -0.4639  0.6885
 
              Baa    -0.0156    -8.346    -2.978    -2.784  0.4179  0.7462  0.5183
    18 H(1)   Bbb    -0.0013    -0.715    -0.255    -0.239  0.7786 -0.0002 -0.6275
              Bcc     0.0170     9.062     3.234     3.023 -0.4681  0.6658 -0.5811
 
              Baa    -0.0041    -2.183    -0.779    -0.728  0.7691 -0.0123 -0.6390
    19 H(1)   Bbb    -0.0029    -1.537    -0.549    -0.513  0.5415  0.5436  0.6413
              Bcc     0.0070     3.720     1.327     1.241 -0.3395  0.8392 -0.4248
 
              Baa    -0.0094    -5.011    -1.788    -1.672  0.7663  0.0156 -0.6423
    20 H(1)   Bbb    -0.0032    -1.690    -0.603    -0.564 -0.4532  0.7218 -0.5231
              Bcc     0.0126     6.701     2.391     2.235  0.4554  0.6919  0.5602
 
              Baa    -0.0047    -2.513    -0.897    -0.838  0.1365  0.9906  0.0109
    21 H(1)   Bbb    -0.0032    -1.713    -0.611    -0.571 -0.4761  0.0559  0.8776
              Bcc     0.0079     4.226     1.508     1.410  0.8687 -0.1250  0.4793
 
              Baa    -0.0157    -8.351    -2.980    -2.785 -0.2494  0.0274  0.9680
    22 H(1)   Bbb    -0.0013    -0.715    -0.255    -0.239  0.1362  0.9907  0.0071
              Bcc     0.0170     9.066     3.235     3.024  0.9588 -0.1336  0.2508
 
              Baa    -0.0041    -2.184    -0.779    -0.728  0.1346  0.9905  0.0282
    23 H(1)   Bbb    -0.0029    -1.538    -0.549    -0.513  0.0100 -0.0298  0.9995
              Bcc     0.0070     3.722     1.328     1.242  0.9909 -0.1342 -0.0139
 
              Baa    -0.0094    -5.013    -1.789    -1.672  0.1607  0.9869  0.0154
    24 H(1)   Bbb    -0.0032    -1.689    -0.603    -0.564  0.9715 -0.1609  0.1742
              Bcc     0.0126     6.703     2.392     2.236 -0.1744  0.0130  0.9846
 

 ---------------------------------------------------------------------------------

 No NMR shielding tensors so no spin-rotation constants.
 Leave Link  601 at Fri Mar  6 16:55:04 2026, MaxMem=  2415919104 cpu:               1.5 elap:               1.6
 (Enter /prod/precompiled/gaussian/16c2/g16/l716.exe)
 Dipole        = 1.77689234D-01 1.94577689D-01-1.19525328D-01
 Polarizability= 0.00000000D+00 0.00000000D+00 0.00000000D+00
                 0.00000000D+00 0.00000000D+00 0.00000000D+00
 -------------------------------------------------------------------
 Center     Atomic                   Forces (Hartrees/Bohr)
 Number     Number              X              Y              Z
 -------------------------------------------------------------------
      1        6           0.000000695   -0.000000037   -0.000000056
      2        6          -0.000000680   -0.000000466    0.000000422
      3       17          -0.000001339   -0.000000626    0.000004955
      4        6          -0.000000052    0.000000591    0.000002025
      5        6          -0.000000480    0.000000374   -0.000000864
      6        6           0.000000999    0.000000718   -0.000001022
      7        6           0.000000627    0.000000151   -0.000002501
      8        7           0.000000605   -0.000000731   -0.000001573
      9        7          -0.000000471   -0.000001312   -0.000000915
     10        6          -0.000000455   -0.000000905   -0.000000295
     11        6           0.000000619    0.000000895   -0.000000438
     12       17           0.000002386    0.000003856   -0.000000363
     13        6           0.000000516    0.000001039    0.000000480
     14        6           0.000000070    0.000000157    0.000000525
     15        6          -0.000001337   -0.000001698    0.000000707
     16        6          -0.000001075   -0.000001749   -0.000000182
     17        1          -0.000000235    0.000000416    0.000001188
     18        1          -0.000000219    0.000000499   -0.000000024
     19        1          -0.000000095    0.000000138   -0.000001784
     20        1           0.000000521   -0.000000060   -0.000001365
     21        1           0.000000804    0.000001000   -0.000000008
     22        1           0.000000199   -0.000000030    0.000000464
     23        1          -0.000000609   -0.000001009    0.000000506
     24        1          -0.000000995   -0.000001212    0.000000119
 -------------------------------------------------------------------
 Cartesian Forces:  Max     0.000004955 RMS     0.000001160
 Leave Link  716 at Fri Mar  6 16:55:04 2026, MaxMem=  2415919104 cpu:               0.1 elap:               0.1
 (Enter /prod/precompiled/gaussian/16c2/g16/l9999.exe)
 Unable to Open any file for archive entry.
 1\1\GINC-AMD21\FOpt\UwB97XD\def2SVP\C12H8Cl2N2(3)\SVELA\06-Mar-2026\0\
 \#p nosymm scf=(maxconventionalcycles=200,xqc) UwB97XD def2SVP opt=(Re
 calcFC=30,cartesian,skipdihedral)\\Title Card\\0,3\C,-0.1731248868,-1.
 0445036851,-0.6583076042\C,0.0139229289,0.3494126416,-0.4570918426\Cl,
 1.0650291643,0.9520537074,0.7876154762\C,-0.6400285791,1.2727602087,-1
 .2686295817\C,-1.4756153667,0.8461113734,-2.298174586\C,-1.6617706992,
 -0.5221654332,-2.5225295601\C,-1.0230300224,-1.4468588541,-1.716242524
 3\N,0.4088867555,-2.0482756956,0.0578895418\N,1.0473502834,-1.95878003
 53,1.1475684894\C,2.3811593132,-2.1484595975,1.3573290065\C,3.38231738
 08,-2.2599112144,0.3555079903\Cl,2.9891449632,-2.1575126786,-1.3332787
 091\C,4.7160977455,-2.4457653185,0.7095041912\C,5.0921973854,-2.511355
 0449,2.049084208\C,4.1237596293,-2.3893344268,3.0512898294\C,2.7952151
 123,-2.2128592132,2.7093071464\H,-0.4784729634,2.3361898382,-1.0863898
 234\H,-1.9775249265,1.5841920471,-2.9262741369\H,-2.3117572897,-0.8635
 459249,-3.3302170504\H,-1.1522151365,-2.5196430704,-1.8670542109\H,5.4
 606885138,-2.5312366398,-0.0832654704\H,6.142811857,-2.6542945364,2.30
 78469741\H,4.4119907752,-2.4354712108,4.1030396775\H,2.0190810624,-2.1
 170442368,3.470047569\\Version=ES64L-G16RevC.02\HF=-1491.0003363\S2=2.
 069948\S2-1=0.\S2A=2.003007\RMSD=6.110e-09\RMSF=1.160e-06\Dipole=0.177
 6892,0.1945777,-0.1195253\Polar=0.,0.,0.,0.,0.,0.\Quadrupole=4.0807428
 ,-5.4313802,1.3506373,-3.584554,7.7498335,-2.2691599\PG=C01 [X(C12H8Cl
 2N2)]\\@
 The archive entry for this job was punched.


 EVERYTHING'S GOT A MORAL, IF ONLY YOU CAN FIND IT.

                                    -- LEWIS CARROL, ALICE IN WONDERLAND
 Job cpu time:       0 days  3 hours 59 minutes 44.9 seconds.
 Elapsed time:       0 days  0 hours 29 minutes 36.0 seconds.
 File lengths (MBytes):  RWF=    479 Int=      0 D2E=      0 Chk=     10 Scr=      1
 Normal termination of Gaussian 16 at Fri Mar  6 16:55:05 2026.
