 Entering Gaussian System, Link 0=g16
 Initial command:
 /prod/precompiled/gaussian/16c2/g16/l1.exe "/scratch/ucsscms/svela/2076944/Gau-2869564.inp" -scrdir="/scratch/ucsscms/svela/2076944/"
 Entering Link 1 = /prod/precompiled/gaussian/16c2/g16/l1.exe PID=   2869565.
  
 Copyright (c) 1988-2021, Gaussian, Inc.  All Rights Reserved.
  
 This is part of the Gaussian(R) 16 program.  It is based on
 the Gaussian(R) 09 system (copyright 2009, Gaussian, Inc.),
 the Gaussian(R) 03 system (copyright 2003, Gaussian, Inc.),
 the Gaussian(R) 98 system (copyright 1998, Gaussian, Inc.),
 the Gaussian(R) 94 system (copyright 1995, Gaussian, Inc.),
 the Gaussian 92(TM) system (copyright 1992, Gaussian, Inc.),
 the Gaussian 90(TM) system (copyright 1990, Gaussian, Inc.),
 the Gaussian 88(TM) system (copyright 1988, Gaussian, Inc.),
 the Gaussian 86(TM) system (copyright 1986, Carnegie Mellon
 University), and the Gaussian 82(TM) system (copyright 1983,
 Carnegie Mellon University). Gaussian is a federally registered
 trademark of Gaussian, Inc.
  
 This software contains proprietary and confidential information,
 including trade secrets, belonging to Gaussian, Inc.
  
 This software is provided under written license and may be
 used, copied, transmitted, or stored only in accord with that
 written license.
  
 The following legend is applicable only to US Government
 contracts under FAR:
  
                    RESTRICTED RIGHTS LEGEND
  
 Use, reproduction and disclosure by the US Government is
 subject to restrictions as set forth in subparagraphs (a)
 and (c) of the Commercial Computer Software - Restricted
 Rights clause in FAR 52.227-19.
  
 Gaussian, Inc.
 340 Quinnipiac St., Bldg. 40, Wallingford CT 06492
  
  
 ---------------------------------------------------------------
 Warning -- This program may not be used in any manner that
 competes with the business of Gaussian, Inc. or will provide
 assistance to any competitor of Gaussian, Inc.  The licensee
 of this program is prohibited from giving any competitor of
 Gaussian, Inc. access to this program.  By using this program,
 the user acknowledges that Gaussian, Inc. is engaged in the
 business of creating and licensing software in the field of
 computational chemistry and represents and warrants to the
 licensee that it is not a competitor of Gaussian, Inc. and that
 it will not use this program in any manner prohibited above.
 ---------------------------------------------------------------
  

 Cite this work as:
 Gaussian 16, Revision C.02,
 M. J. Frisch, G. W. Trucks, H. B. Schlegel, G. E. Scuseria, 
 M. A. Robb, J. R. Cheeseman, G. Scalmani, V. Barone, 
 G. A. Petersson, H. Nakatsuji, X. Li, M. Caricato, A. V. Marenich, 
 J. Bloino, B. G. Janesko, R. Gomperts, B. Mennucci, H. P. Hratchian, 
 J. V. Ortiz, A. F. Izmaylov, J. L. Sonnenberg, D. Williams-Young, 
 F. Ding, F. Lipparini, F. Egidi, J. Goings, B. Peng, A. Petrone, 
 T. Henderson, D. Ranasinghe, V. G. Zakrzewski, J. Gao, N. Rega, 
 G. Zheng, W. Liang, M. Hada, M. Ehara, K. Toyota, R. Fukuda, 
 J. Hasegawa, M. Ishida, T. Nakajima, Y. Honda, O. Kitao, H. Nakai, 
 T. Vreven, K. Throssell, J. A. Montgomery, Jr., J. E. Peralta, 
 F. Ogliaro, M. J. Bearpark, J. J. Heyd, E. N. Brothers, K. N. Kudin, 
 V. N. Staroverov, T. A. Keith, R. Kobayashi, J. Normand, 
 K. Raghavachari, A. P. Rendell, J. C. Burant, S. S. Iyengar, 
 J. Tomasi, M. Cossi, J. M. Millam, M. Klene, C. Adamo, R. Cammi, 
 J. W. Ochterski, R. L. Martin, K. Morokuma, O. Farkas, 
 J. B. Foresman, and D. J. Fox, Gaussian, Inc., Wallingford CT, 2019.
 
 ******************************************
 Gaussian 16:  ES64L-G16RevC.02  7-Dec-2021
                 6-Mar-2026 
 ******************************************
 %nprocs=12
 Will use up to   12 processors via shared memory.
 %mem=18gb
 %chk=test_tsrot_a_s_freq_r1.chk
 ----------------------------------------------------------------------
 #p nosymm scf=(maxconventionalcycles=200,xqc) wB97XD def2SVP freq(hpmo
 des)
 ----------------------------------------------------------------------
 1/10=4,30=1,38=1/1,3;
 2/12=2,15=1,17=6,18=5,40=1/2;
 3/5=43,7=101,11=2,25=1,30=1,71=2,74=-58,140=1/1,2,3;
 4//1;
 5/5=2,8=3,13=1,38=5,85=200,98=1/2,8;
 8/6=4,10=90,11=11/1;
 11/6=1,8=1,9=11,15=111,16=1,31=1/1,2,10;
 10/6=1,31=1/2;
 6/7=2,8=2,9=2,10=2,28=1/1;
 7/8=11,10=1,25=1,30=1/1,2,3,16;
 1/10=4,30=1/3;
 99//99;
 Leave Link    1 at Fri Mar  6 17:31:51 2026, MaxMem=  2415919104 cpu:               0.1 elap:               0.1
 (Enter /prod/precompiled/gaussian/16c2/g16/l101.exe)
 ----------
 Title Card
 ----------
 Symbolic Z-matrix:
 Charge =  0 Multiplicity = 1
 C                    -0.29969  -0.77607  -0.12794 
 C                    -0.22238   0.61249  -0.2818 
 Cl                    0.23846   1.59365   1.07908 
 C                    -0.4546    1.19922  -1.52155 
 C                    -0.78452   0.40085  -2.6148 
 C                    -0.89319  -0.98118  -2.46061 
 C                    -0.66876  -1.56687  -1.21958 
 N                    -0.24319  -1.35624   1.15922 
 N                     0.70741  -1.82951   1.7785 
 C                     2.1139   -1.96288   1.475 
 C                     2.98343  -1.61077   0.41181 
 Cl                    2.5339   -0.80285  -1.05697 
 C                     4.34634  -1.91625   0.49502 
 C                     4.88422  -2.56427   1.59975 
 C                     4.05328  -2.92125   2.65709 
 C                     2.70388  -2.617     2.57724 
 H                    -0.36569   2.28197  -1.62121 
 H                    -0.96442   0.8638   -3.58667 
 H                    -1.15909  -1.60929  -3.31295 
 H                    -0.76232  -2.64533  -1.07999 
 H                     4.98639  -1.62959  -0.34024 
 H                     5.95309  -2.78517   1.62697 
 H                     4.45049  -3.42919   3.53719 
 H                     2.01916  -2.87456   3.38602 
 
 ITRead=  0  0  0  0  0  0  0  0  0  0  0  0  0  0  0  0  0  0  0  0
 ITRead=  0  0  0  0
 MicOpt= -1 -1 -1 -1 -1 -1 -1 -1 -1 -1 -1 -1 -1 -1 -1 -1 -1 -1 -1 -1
 MicOpt= -1 -1 -1 -1
 NAtoms=     24 NQM=       24 NQMF=       0 NMMI=      0 NMMIF=      0
                NMic=       0 NMicF=      0.
                    Isotopes and Nuclear Properties:
 (Nuclear quadrupole moments (NQMom) in fm**2, nuclear magnetic moments (NMagM)
  in nuclear magnetons)

  Atom         1           2           3           4           5           6           7           8           9          10
 IAtWgt=          12          12          35          12          12          12          12          14          14          12
 AtmWgt=  12.0000000  12.0000000  34.9688527  12.0000000  12.0000000  12.0000000  12.0000000  14.0030740  14.0030740  12.0000000
 NucSpn=           0           0           3           0           0           0           0           2           2           0
 AtZEff=  -0.0000000  -0.0000000  -0.0000000  -0.0000000  -0.0000000  -0.0000000  -0.0000000  -0.0000000  -0.0000000  -0.0000000
 NQMom=    0.0000000   0.0000000  -8.1650000   0.0000000   0.0000000   0.0000000   0.0000000   2.0440000   2.0440000   0.0000000
 NMagM=    0.0000000   0.0000000   0.8218740   0.0000000   0.0000000   0.0000000   0.0000000   0.4037610   0.4037610   0.0000000
 AtZNuc=   6.0000000   6.0000000  17.0000000   6.0000000   6.0000000   6.0000000   6.0000000   7.0000000   7.0000000   6.0000000

  Atom        11          12          13          14          15          16          17          18          19          20
 IAtWgt=          12          35          12          12          12          12           1           1           1           1
 AtmWgt=  12.0000000  34.9688527  12.0000000  12.0000000  12.0000000  12.0000000   1.0078250   1.0078250   1.0078250   1.0078250
 NucSpn=           0           3           0           0           0           0           1           1           1           1
 AtZEff=  -0.0000000  -0.0000000  -0.0000000  -0.0000000  -0.0000000  -0.0000000  -0.0000000  -0.0000000  -0.0000000  -0.0000000
 NQMom=    0.0000000  -8.1650000   0.0000000   0.0000000   0.0000000   0.0000000   0.0000000   0.0000000   0.0000000   0.0000000
 NMagM=    0.0000000   0.8218740   0.0000000   0.0000000   0.0000000   0.0000000   2.7928460   2.7928460   2.7928460   2.7928460
 AtZNuc=   6.0000000  17.0000000   6.0000000   6.0000000   6.0000000   6.0000000   1.0000000   1.0000000   1.0000000   1.0000000

  Atom        21          22          23          24
 IAtWgt=           1           1           1           1
 AtmWgt=   1.0078250   1.0078250   1.0078250   1.0078250
 NucSpn=           1           1           1           1
 AtZEff=  -0.0000000  -0.0000000  -0.0000000  -0.0000000
 NQMom=    0.0000000   0.0000000   0.0000000   0.0000000
 NMagM=    2.7928460   2.7928460   2.7928460   2.7928460
 AtZNuc=   1.0000000   1.0000000   1.0000000   1.0000000
 Leave Link  101 at Fri Mar  6 17:31:51 2026, MaxMem=  2415919104 cpu:               0.2 elap:               0.1
 (Enter /prod/precompiled/gaussian/16c2/g16/l103.exe)

 GradGradGradGradGradGradGradGradGradGradGradGradGradGradGradGradGradGrad
 Berny optimization.
 Initialization pass.
 Trust Radius=3.00D-01 FncErr=1.00D-07 GrdErr=1.00D-07 EigMax=2.50D+02 EigMin=1.00D-04
 Number of steps in this run=      2 maximum allowed number of steps=      2.
 GradGradGradGradGradGradGradGradGradGradGradGradGradGradGradGradGradGrad

 Leave Link  103 at Fri Mar  6 17:31:51 2026, MaxMem=  2415919104 cpu:               0.1 elap:               0.0
 (Enter /prod/precompiled/gaussian/16c2/g16/l202.exe)
                          Input orientation:                          
 ---------------------------------------------------------------------
 Center     Atomic      Atomic             Coordinates (Angstroms)
 Number     Number       Type             X           Y           Z
 ---------------------------------------------------------------------
      1          6           0       -0.299686   -0.776072   -0.127936
      2          6           0       -0.222383    0.612492   -0.281798
      3         17           0        0.238463    1.593652    1.079081
      4          6           0       -0.454600    1.199215   -1.521546
      5          6           0       -0.784523    0.400851   -2.614800
      6          6           0       -0.893188   -0.981184   -2.460610
      7          6           0       -0.668757   -1.566867   -1.219582
      8          7           0       -0.243193   -1.356242    1.159222
      9          7           0        0.707407   -1.829505    1.778498
     10          6           0        2.113897   -1.962876    1.474995
     11          6           0        2.983426   -1.610768    0.411805
     12         17           0        2.533904   -0.802846   -1.056968
     13          6           0        4.346343   -1.916251    0.495024
     14          6           0        4.884222   -2.564273    1.599749
     15          6           0        4.053278   -2.921252    2.657089
     16          6           0        2.703879   -2.617001    2.577236
     17          1           0       -0.365692    2.281972   -1.621210
     18          1           0       -0.964416    0.863799   -3.586672
     19          1           0       -1.159088   -1.609286   -3.312953
     20          1           0       -0.762318   -2.645334   -1.079989
     21          1           0        4.986394   -1.629592   -0.340235
     22          1           0        5.953094   -2.785174    1.626973
     23          1           0        4.450494   -3.429192    3.537187
     24          1           0        2.019157   -2.874564    3.386016
 ---------------------------------------------------------------------
                    Distance matrix (angstroms):
                    1          2          3          4          5
     1  C    0.000000
     2  C    1.399200   0.000000
     3  Cl   2.713316   1.739841   0.000000
     4  C    2.422376   1.391094   2.720143   0.000000
     5  C    2.793691   2.409085   4.014229   1.393355   0.000000
     6  C    2.415716   2.781547   4.521043   2.414196   1.394849
     7  C    1.397591   2.414186   4.011955   2.790745   2.414943
     8  N    1.412998   2.439854   2.990032   3.709659   4.198054
     9  N    2.399677   3.327563   3.525209   4.627493   5.147952
    10  C    3.131018   3.895773   4.040160   5.057198   5.542063
    11  C    3.430286   3.962472   4.271813   4.842920   5.234920
    12  Cl   2.982122   3.193930   3.946512   3.627015   3.858456
    13  C    4.824280   5.279323   5.434632   6.068092   6.431621
    14  C    5.749388   6.301545   6.256398   7.239430   7.660878
    15  C    5.595217   6.277394   6.117784   7.400014   7.888821
    16  C    4.441664   5.212169   5.104150   6.429581   6.945043
    17  H    3.403800   2.145163   2.851378   1.090963   2.168238
    18  H    3.885087   3.396463   4.873280   2.153407   1.091429
    19  H    3.402521   3.873192   5.612657   3.404867   2.160640
    20  H    2.148156   3.397362   4.861291   3.882038   3.411067
    21  H    5.358751   5.671130   5.911566   6.245163   6.526854
    22  H    6.798048   7.302332   7.220202   8.176006   8.575481
    23  H    6.560212   7.263307   7.000889   8.430473   8.939887
    24  H    4.704100   5.535063   5.334583   6.841002   7.389097
                    6          7          8          9         10
     6  C    0.000000
     7  C    1.390519   0.000000
     8  N    3.696802   2.425732   0.000000
     9  N    4.609945   3.309273   1.229277   0.000000
    10  C    5.049284   3.893678   2.454300   1.445031   0.000000
    11  C    4.865725   4.000224   3.321820   2.663824   1.417898
    12  Cl   3.707691   3.296545   3.595833   3.525619   2.816543
    13  C    6.087923   5.311607   4.671039   3.859622   2.438510
    14  C    7.236792   6.307061   5.286188   4.244717   2.837594
    15  C    7.377143   6.257839   4.811707   3.627490   2.465163
    16  C    6.402709   5.185873   3.505069   2.289985   1.410990
    17  H    3.410430   3.881587   4.580656   5.441856   5.809783
    18  H    2.162649   3.405682   5.288880   6.231687   6.564037
    19  H    1.091652   2.150448   4.572007   5.427262   5.810499
    20  H    2.166249   1.091481   2.635397   3.316115   3.907212
    21  H    6.283781   5.723453   5.447171   4.778988   3.414290
    22  H    8.175224   7.309997   6.376097   5.334182   3.929212
    23  H    8.397693   7.232001   5.655311   4.434263   3.444184
    24  H    6.800711   5.490582   3.518827   2.323134   2.119470
                   11         12         13         14         15
    11  C    0.000000
    12  Cl   1.735541   0.000000
    13  C    1.399210   2.633113   0.000000
    14  C    2.435859   3.960400   1.389123   0.000000
    15  C    2.811272   4.537660   2.402174   1.391355   0.000000
    16  C    2.404110   4.065401   2.743054   2.390012   1.385577
    17  H    5.522967   4.271080   6.656335   7.837236   8.056344
    18  H    6.139768   4.627672   7.252109   8.535643   8.859369
    19  H    5.570839   4.402045   6.701096   7.846543   8.033145
    20  H    4.162496   3.776291   5.395428   6.250678   6.101791
    21  H    2.139579   2.685502   1.090640   2.155831   3.394561
    22  H    3.416839   4.777450   2.148950   1.091799   2.165400
    23  H    3.902175   5.628256   3.399205   2.165611   1.091034
    24  H    3.372377   4.929208   3.833014   3.390520   2.161287
                   16         17         18         19         20
    16  C    0.000000
    17  H    7.144869   0.000000
    18  H    7.972836   2.496543   0.000000
    19  H    7.115640   4.316638   2.495790   0.000000
    20  H    5.038911   4.972784   4.317212   2.493381   0.000000
    21  H    3.833600   6.751745   7.222776   6.826743   5.884442
    22  H    3.389496   8.726610   9.399417   8.738920   7.241820
    23  H    2.152167   9.078662   9.924736   9.039020   7.007579
    24  H    1.090554   7.572957   8.455498   7.521859   5.266341
                   21         22         23         24
    21  H    0.000000
    22  H    2.477859   0.000000
    23  H    4.308149   2.514256   0.000000
    24  H    4.923352   4.310230   2.498372   0.000000
 Symmetry turned off by external request.
 Stoichiometry    C12H8Cl2N2
 Framework group  C1[X(C12H8Cl2N2)]
 Deg. of freedom    66
 Full point group                 C1      NOp   1
 Rotational constants (GHZ):           0.8031983           0.3127338           0.2873268
 Leave Link  202 at Fri Mar  6 17:31:51 2026, MaxMem=  2415919104 cpu:               0.1 elap:               0.0
 (Enter /prod/precompiled/gaussian/16c2/g16/l301.exe)
 Standard basis: def2SVP (5D, 7F)
 Ernie: Thresh=  0.10000D-02 Tol=  0.10000D-05 Strict=F.
   272 basis functions,   480 primitive gaussians,   288 cartesian basis functions
    64 alpha electrons       64 beta electrons
       nuclear repulsion energy      1253.4367885497 Hartrees.
 IExCor= 4639 DFT=T Ex+Corr=wB97XD ExCW=0 ScaHFX=  1.000000
 ScaDFX=  1.000000  1.000000  1.000000  1.000000 ScalE2=  1.000000  1.000000
 IRadAn=      5 IRanWt=     -1 IRanGd=            0 ICorTp=0 IEmpDi=121
 HFx  wShort=  0.000000 wLong=  0.200000 cFull=  0.222036 cShort=  0.000000 cLong=  0.777964
 DFx  wShort=  0.000000 wLong=  0.200000 cFull=  0.000000 cShort=  0.000000 cLong=  1.000000
 NAtoms=   24 NActive=   24 NUniq=   24 SFac= 1.00D+00 NAtFMM=   60 NAOKFM=F Big=F
 Integral buffers will be    131072 words long.
 Raffenetti 2 integral format.
 Two-electron integral symmetry is turned off.
 R6Disp:  Grimme-D2 Dispersion energy=       -0.0159499662 Hartrees.
 Nuclear repulsion after empirical dispersion term =     1253.4208385835 Hartrees.
 Leave Link  301 at Fri Mar  6 17:31:51 2026, MaxMem=  2415919104 cpu:               0.1 elap:               0.1
 (Enter /prod/precompiled/gaussian/16c2/g16/l302.exe)
 NPDir=0 NMtPBC=     1 NCelOv=     1 NCel=       1 NClECP=     1 NCelD=      1
         NCelK=      1 NCelE2=     1 NClLst=     1 CellRange=     0.0.
 One-electron integrals computed using PRISM.
   1 Symmetry operations used in ECPInt.
 ECPInt:  NShTT=    7750 NPrTT=   30142 LenC2=    7233 LenP2D=   19763.
 LDataN:  DoStor=T MaxTD1= 4 Len=   56
 NBasis=   272 RedAO= T EigKep=  2.16D-04  NBF=   272
 NBsUse=   272 1.00D-06 EigRej= -1.00D+00 NBFU=   272
 Precomputing XC quadrature grid using
 IXCGrd= 4 IRadAn=           5 IRanWt=          -1 IRanGd=           0 AccXCQ= 0.00D+00.
 Generated NRdTot=       0 NPtTot=           0 NUsed=           0 NTot=          32
 NSgBfM=   285   285   285   285   285 MxSgAt=    24 MxSgA2=    24.
 Leave Link  302 at Fri Mar  6 17:31:52 2026, MaxMem=  2415919104 cpu:               1.5 elap:               0.3
 (Enter /prod/precompiled/gaussian/16c2/g16/l303.exe)
 DipDrv:  MaxL=1.
 Leave Link  303 at Fri Mar  6 17:31:52 2026, MaxMem=  2415919104 cpu:               0.2 elap:               0.1
 (Enter /prod/precompiled/gaussian/16c2/g16/l401.exe)
 ExpMin= 1.22D-01 ExpMax= 1.04D+04 ExpMxC= 1.57D+03 IAcc=3 IRadAn=         5 AccDes= 0.00D+00
 Harris functional with IExCor= 4639 and IRadAn=       5 diagonalized for initial guess.
 HarFok:  IExCor= 4639 AccDes= 0.00D+00 IRadAn=         5 IDoV= 1 UseB2=F ITyADJ=14
 ICtDFT=  3500011 ScaDFX=  1.000000  1.000000  1.000000  1.000000
 FoFCou: FMM=F IPFlag=           0 FMFlag=      100000 FMFlg1=           0
         NFxFlg=           0 DoJE=T BraDBF=F KetDBF=T FulRan=T
         wScrn=  0.000000 ICntrl=       500 IOpCl=  0 I1Cent=   200000004 NGrid=           0
         NMat0=    1 NMatS0=      1 NMatT0=    0 NMatD0=    1 NMtDS0=    0 NMtDT0=    0
 Symmetry not used in FoFCou.
 Harris En= -1450.78635995020    
 JPrj=0 DoOrth=F DoCkMO=F.
 Leave Link  401 at Fri Mar  6 17:31:52 2026, MaxMem=  2415919104 cpu:               7.1 elap:               0.7
 (Enter /prod/precompiled/gaussian/16c2/g16/l502.exe)
 Two-electron integral symmetry not used.
 Closed shell SCF:
 Using DIIS extrapolation, IDIIS=  1040.
 NGot=  2415919104 LenX=  2415746906 LenY=  2415663521
 Requested convergence on RMS density matrix=1.00D-08 within 200 cycles.
 Requested convergence on MAX density matrix=1.00D-06.
 Requested convergence on             energy=1.00D-06.
 No special actions if energy rises.
 Fock matrices will be formed incrementally for  20 cycles.
 Integral accuracy reduced to 1.0D-05 until final iterations.

 Cycle   1  Pass 0  IDiag  1:
 FoFJK:  IHMeth= 1 ICntrl=       0 DoSepK=T KAlg= 0 I1Cent=           0 FoldK=F
 IRaf=         1 NMat=       1 IRICut=       1 DoRegI=T DoRafI=F ISym2E= 0 IDoP0=0 IntGTp=1.
 FoFCou: FMM=F IPFlag=           0 FMFlag=      100000 FMFlg1=           0
         NFxFlg=           0 DoJE=T BraDBF=F KetDBF=F FulRan=T
         wScrn=  0.000000 ICntrl=       500 IOpCl=  0 I1Cent=           0 NGrid=           0
         NMat0=    1 NMatS0=      1 NMatT0=    0 NMatD0=    1 NMtDS0=    0 NMtDT0=    0
 Symmetry not used in FoFCou.
 E= -1490.57198347386    
 DIIS: error= 3.43D-02 at cycle   1 NSaved=   1.
 NSaved= 1 IEnMin= 1 EnMin= -1490.57198347386     IErMin= 1 ErrMin= 3.43D-02
 ErrMax= 3.43D-02  0.00D+00 EMaxC= 1.00D-01 BMatC= 7.30D-01 BMatP= 7.30D-01
 IDIUse=3 WtCom= 6.57D-01 WtEn= 3.43D-01
 Coeff-Com:  0.100D+01
 Coeff-En:   0.100D+01
 Coeff:      0.100D+01
 Gap=     0.345 Goal=   None    Shift=    0.000
 GapD=    0.345 DampG=1.000 DampE=0.500 DampFc=0.5000 IDamp=-1.
 Damping current iteration by 5.00D-01
 RMSDP=6.79D-03 MaxDP=2.82D-01              OVMax= 2.30D-01

 Cycle   2  Pass 0  IDiag  1:
 RMSU=  3.33D-03    CP:  9.76D-01
 E= -1490.78292823844     Delta-E=       -0.210944764578 Rises=F Damp=T
 DIIS: error= 1.27D-02 at cycle   2 NSaved=   2.
 NSaved= 2 IEnMin= 2 EnMin= -1490.78292823844     IErMin= 2 ErrMin= 1.27D-02
 ErrMax= 1.27D-02  0.00D+00 EMaxC= 1.00D-01 BMatC= 9.29D-02 BMatP= 7.30D-01
 IDIUse=3 WtCom= 8.73D-01 WtEn= 1.27D-01
 Coeff-Com: -0.243D+00 0.124D+01
 Coeff-En:   0.000D+00 0.100D+01
 Coeff:     -0.212D+00 0.121D+01
 Gap=     0.377 Goal=   None    Shift=    0.000
 RMSDP=2.39D-03 MaxDP=8.68D-02 DE=-2.11D-01 OVMax= 1.87D-01

 Cycle   3  Pass 0  IDiag  1:
 RMSU=  2.25D-03    CP:  9.57D-01  1.18D+00
 E= -1490.96667756175     Delta-E=       -0.183749323310 Rises=F Damp=F
 DIIS: error= 8.10D-03 at cycle   3 NSaved=   3.
 NSaved= 3 IEnMin= 3 EnMin= -1490.96667756175     IErMin= 3 ErrMin= 8.10D-03
 ErrMax= 8.10D-03  0.00D+00 EMaxC= 1.00D-01 BMatC= 3.47D-02 BMatP= 9.29D-02
 IDIUse=3 WtCom= 9.19D-01 WtEn= 8.10D-02
 Coeff-Com: -0.189D+00 0.541D+00 0.648D+00
 Coeff-En:   0.000D+00 0.000D+00 0.100D+01
 Coeff:     -0.173D+00 0.497D+00 0.677D+00
 Gap=     0.287 Goal=   None    Shift=    0.000
 RMSDP=1.12D-03 MaxDP=3.56D-02 DE=-1.84D-01 OVMax= 7.32D-02

 Cycle   4  Pass 0  IDiag  1:
 RMSU=  8.36D-04    CP:  9.51D-01  1.34D+00  7.78D-01
 E= -1490.99917148974     Delta-E=       -0.032493927990 Rises=F Damp=F
 DIIS: error= 3.08D-03 at cycle   4 NSaved=   4.
 NSaved= 4 IEnMin= 4 EnMin= -1490.99917148974     IErMin= 4 ErrMin= 3.08D-03
 ErrMax= 3.08D-03  0.00D+00 EMaxC= 1.00D-01 BMatC= 5.31D-03 BMatP= 3.47D-02
 IDIUse=3 WtCom= 9.69D-01 WtEn= 3.08D-02
 Coeff-Com: -0.680D-01 0.153D+00 0.343D+00 0.572D+00
 Coeff-En:   0.000D+00 0.000D+00 0.294D-01 0.971D+00
 Coeff:     -0.659D-01 0.148D+00 0.334D+00 0.584D+00
 Gap=     0.264 Goal=   None    Shift=    0.000
 RMSDP=3.47D-04 MaxDP=1.48D-02 DE=-3.25D-02 OVMax= 2.14D-02

 Cycle   5  Pass 0  IDiag  1:
 RMSU=  2.17D-04    CP:  9.50D-01  1.35D+00  8.68D-01  7.93D-01
 E= -1491.00393276023     Delta-E=       -0.004761270488 Rises=F Damp=F
 DIIS: error= 1.13D-03 at cycle   5 NSaved=   5.
 NSaved= 5 IEnMin= 5 EnMin= -1491.00393276023     IErMin= 5 ErrMin= 1.13D-03
 ErrMax= 1.13D-03  0.00D+00 EMaxC= 1.00D-01 BMatC= 4.79D-04 BMatP= 5.31D-03
 IDIUse=3 WtCom= 9.89D-01 WtEn= 1.13D-02
 Coeff-Com: -0.162D-01 0.259D-01 0.112D+00 0.301D+00 0.577D+00
 Coeff-En:   0.000D+00 0.000D+00 0.000D+00 0.000D+00 0.100D+01
 Coeff:     -0.160D-01 0.256D-01 0.110D+00 0.298D+00 0.582D+00
 Gap=     0.266 Goal=   None    Shift=    0.000
 RMSDP=1.03D-04 MaxDP=4.57D-03 DE=-4.76D-03 OVMax= 6.12D-03

 Cycle   6  Pass 0  IDiag  1:
 RMSU=  7.96D-05    CP:  9.50D-01  1.36D+00  8.80D-01  8.34D-01  7.78D-01
 E= -1491.00442486854     Delta-E=       -0.000492108315 Rises=F Damp=F
 DIIS: error= 3.33D-04 at cycle   6 NSaved=   6.
 NSaved= 6 IEnMin= 6 EnMin= -1491.00442486854     IErMin= 6 ErrMin= 3.33D-04
 ErrMax= 3.33D-04  0.00D+00 EMaxC= 1.00D-01 BMatC= 3.17D-05 BMatP= 4.79D-04
 IDIUse=3 WtCom= 9.97D-01 WtEn= 3.33D-03
 Coeff-Com:  0.927D-02-0.224D-01-0.349D-01-0.317D-01 0.145D+00 0.935D+00
 Coeff-En:   0.000D+00 0.000D+00 0.000D+00 0.000D+00 0.000D+00 0.100D+01
 Coeff:      0.924D-02-0.223D-01-0.347D-01-0.316D-01 0.144D+00 0.935D+00
 Gap=     0.267 Goal=   None    Shift=    0.000
 RMSDP=6.66D-05 MaxDP=1.15D-03 DE=-4.92D-04 OVMax= 4.87D-03

 Cycle   7  Pass 0  IDiag  1:
 RMSU=  3.68D-05    CP:  9.49D-01  1.36D+00  8.87D-01  8.79D-01  9.21D-01
                    CP:  1.23D+00
 E= -1491.00450241980     Delta-E=       -0.000077551262 Rises=F Damp=F
 DIIS: error= 2.19D-04 at cycle   7 NSaved=   7.
 NSaved= 7 IEnMin= 7 EnMin= -1491.00450241980     IErMin= 7 ErrMin= 2.19D-04
 ErrMax= 2.19D-04  0.00D+00 EMaxC= 1.00D-01 BMatC= 8.26D-06 BMatP= 3.17D-05
 IDIUse=3 WtCom= 9.98D-01 WtEn= 2.19D-03
 Coeff-Com:  0.674D-02-0.137D-01-0.337D-01-0.649D-01-0.311D-01 0.441D+00
 Coeff-Com:  0.696D+00
 Coeff-En:   0.000D+00 0.000D+00 0.000D+00 0.000D+00 0.000D+00 0.000D+00
 Coeff-En:   0.100D+01
 Coeff:      0.672D-02-0.137D-01-0.336D-01-0.648D-01-0.310D-01 0.440D+00
 Coeff:      0.697D+00
 Gap=     0.267 Goal=   None    Shift=    0.000
 RMSDP=2.41D-05 MaxDP=4.69D-04 DE=-7.76D-05 OVMax= 1.84D-03

 Cycle   8  Pass 0  IDiag  1:
 RMSU=  1.53D-05    CP:  9.49D-01  1.36D+00  8.91D-01  8.87D-01  9.63D-01
                    CP:  1.38D+00  9.30D-01
 E= -1491.00451809019     Delta-E=       -0.000015670392 Rises=F Damp=F
 DIIS: error= 5.48D-05 at cycle   8 NSaved=   8.
 NSaved= 8 IEnMin= 8 EnMin= -1491.00451809019     IErMin= 8 ErrMin= 5.48D-05
 ErrMax= 5.48D-05  0.00D+00 EMaxC= 1.00D-01 BMatC= 7.56D-07 BMatP= 8.26D-06
 IDIUse=1 WtCom= 1.00D+00 WtEn= 0.00D+00
 Coeff-Com:  0.699D-03-0.906D-03-0.562D-02-0.158D-01-0.295D-01 0.267D-01
 Coeff-Com:  0.220D+00 0.804D+00
 Coeff:      0.699D-03-0.906D-03-0.562D-02-0.158D-01-0.295D-01 0.267D-01
 Coeff:      0.220D+00 0.804D+00
 Gap=     0.267 Goal=   None    Shift=    0.000
 RMSDP=8.52D-06 MaxDP=2.15D-04 DE=-1.57D-05 OVMax= 8.58D-04

 Initial convergence to 1.0D-05 achieved.  Increase integral accuracy.
 Cycle   9  Pass 1  IDiag  1:
 E= -1491.00441929043     Delta-E=        0.000098799760 Rises=F Damp=F
 DIIS: error= 1.15D-04 at cycle   1 NSaved=   1.
 NSaved= 1 IEnMin= 1 EnMin= -1491.00441929043     IErMin= 1 ErrMin= 1.15D-04
 ErrMax= 1.15D-04  0.00D+00 EMaxC= 1.00D-01 BMatC= 1.29D-06 BMatP= 1.29D-06
 IDIUse=3 WtCom= 9.99D-01 WtEn= 1.15D-03
 Coeff-Com:  0.100D+01
 Coeff-En:   0.100D+01
 Coeff:      0.100D+01
 Gap=     0.267 Goal=   None    Shift=    0.000
 RMSDP=8.52D-06 MaxDP=2.15D-04 DE= 9.88D-05 OVMax= 4.59D-04

 Cycle  10  Pass 1  IDiag  1:
 RMSU=  8.47D-05    CP:  1.00D+00
 E= -1491.00442074702     Delta-E=       -0.000001456589 Rises=F Damp=F
 DIIS: error= 1.46D-05 at cycle   2 NSaved=   2.
 NSaved= 2 IEnMin= 2 EnMin= -1491.00442074702     IErMin= 2 ErrMin= 1.46D-05
 ErrMax= 1.46D-05  0.00D+00 EMaxC= 1.00D-01 BMatC= 1.17D-07 BMatP= 1.29D-06
 IDIUse=1 WtCom= 1.00D+00 WtEn= 0.00D+00
 Coeff-Com:  0.881D-01 0.912D+00
 Coeff:      0.881D-01 0.912D+00
 Gap=     0.267 Goal=   None    Shift=    0.000
 RMSDP=5.56D-06 MaxDP=1.08D-04 DE=-1.46D-06 OVMax= 2.41D-04

 Cycle  11  Pass 1  IDiag  1:
 RMSU=  3.38D-06    CP:  1.00D+00  1.05D+00
 E= -1491.00442087514     Delta-E=       -0.000000128113 Rises=F Damp=F
 DIIS: error= 1.82D-05 at cycle   3 NSaved=   3.
 NSaved= 3 IEnMin= 3 EnMin= -1491.00442087514     IErMin= 2 ErrMin= 1.46D-05
 ErrMax= 1.82D-05  0.00D+00 EMaxC= 1.00D-01 BMatC= 1.14D-07 BMatP= 1.17D-07
 IDIUse=1 WtCom= 1.00D+00 WtEn= 0.00D+00
 Coeff-Com: -0.359D-01 0.503D+00 0.532D+00
 Coeff:     -0.359D-01 0.503D+00 0.532D+00
 Gap=     0.267 Goal=   None    Shift=    0.000
 RMSDP=1.73D-06 MaxDP=6.20D-05 DE=-1.28D-07 OVMax= 1.23D-04

 Cycle  12  Pass 1  IDiag  1:
 RMSU=  1.44D-06    CP:  1.00D+00  1.06D+00  8.32D-01
 E= -1491.00442100389     Delta-E=       -0.000000128751 Rises=F Damp=F
 DIIS: error= 3.63D-06 at cycle   4 NSaved=   4.
 NSaved= 4 IEnMin= 4 EnMin= -1491.00442100389     IErMin= 4 ErrMin= 3.63D-06
 ErrMax= 3.63D-06  0.00D+00 EMaxC= 1.00D-01 BMatC= 5.91D-09 BMatP= 1.14D-07
 IDIUse=1 WtCom= 1.00D+00 WtEn= 0.00D+00
 Coeff-Com: -0.170D-01 0.462D-01 0.120D+00 0.851D+00
 Coeff:     -0.170D-01 0.462D-01 0.120D+00 0.851D+00
 Gap=     0.267 Goal=   None    Shift=    0.000
 RMSDP=8.48D-07 MaxDP=2.39D-05 DE=-1.29D-07 OVMax= 1.11D-04

 Cycle  13  Pass 1  IDiag  1:
 RMSU=  5.87D-07    CP:  1.00D+00  1.06D+00  9.48D-01  1.32D+00
 E= -1491.00442102888     Delta-E=       -0.000000024989 Rises=F Damp=F
 DIIS: error= 2.95D-06 at cycle   5 NSaved=   5.
 NSaved= 5 IEnMin= 5 EnMin= -1491.00442102888     IErMin= 5 ErrMin= 2.95D-06
 ErrMax= 2.95D-06  0.00D+00 EMaxC= 1.00D-01 BMatC= 3.03D-09 BMatP= 5.91D-09
 IDIUse=1 WtCom= 1.00D+00 WtEn= 0.00D+00
 Coeff-Com:  0.740D-02-0.191D+00-0.183D+00 0.412D+00 0.955D+00
 Coeff:      0.740D-02-0.191D+00-0.183D+00 0.412D+00 0.955D+00
 Gap=     0.267 Goal=   None    Shift=    0.000
 RMSDP=8.67D-07 MaxDP=1.99D-05 DE=-2.50D-08 OVMax= 1.23D-04

 Cycle  14  Pass 1  IDiag  1:
 RMSU=  3.90D-07    CP:  1.00D+00  1.06D+00  1.07D+00  1.73D+00  1.42D+00
 E= -1491.00442104312     Delta-E=       -0.000000014240 Rises=F Damp=F
 DIIS: error= 9.94D-07 at cycle   6 NSaved=   6.
 NSaved= 6 IEnMin= 6 EnMin= -1491.00442104312     IErMin= 6 ErrMin= 9.94D-07
 ErrMax= 9.94D-07  0.00D+00 EMaxC= 1.00D-01 BMatC= 6.91D-10 BMatP= 3.03D-09
 IDIUse=1 WtCom= 1.00D+00 WtEn= 0.00D+00
 Coeff-Com:  0.735D-02-0.106D+00-0.118D+00 0.281D-01 0.487D+00 0.702D+00
 Coeff:      0.735D-02-0.106D+00-0.118D+00 0.281D-01 0.487D+00 0.702D+00
 Gap=     0.267 Goal=   None    Shift=    0.000
 RMSDP=3.37D-07 MaxDP=6.45D-06 DE=-1.42D-08 OVMax= 4.81D-05

 Cycle  15  Pass 1  IDiag  1:
 RMSU=  1.65D-07    CP:  1.00D+00  1.06D+00  1.10D+00  1.89D+00  1.70D+00
                    CP:  1.16D+00
 E= -1491.00442104538     Delta-E=       -0.000000002261 Rises=F Damp=F
 DIIS: error= 5.21D-07 at cycle   7 NSaved=   7.
 NSaved= 7 IEnMin= 7 EnMin= -1491.00442104538     IErMin= 7 ErrMin= 5.21D-07
 ErrMax= 5.21D-07  0.00D+00 EMaxC= 1.00D-01 BMatC= 7.45D-11 BMatP= 6.91D-10
 IDIUse=1 WtCom= 1.00D+00 WtEn= 0.00D+00
 Coeff-Com:  0.618D-03 0.411D-02 0.396D-02-0.632D-01-0.471D-01 0.146D+00
 Coeff-Com:  0.956D+00
 Coeff:      0.618D-03 0.411D-02 0.396D-02-0.632D-01-0.471D-01 0.146D+00
 Coeff:      0.956D+00
 Gap=     0.267 Goal=   None    Shift=    0.000
 RMSDP=1.64D-07 MaxDP=3.47D-06 DE=-2.26D-09 OVMax= 2.50D-05

 Cycle  16  Pass 1  IDiag  1:
 RMSU=  7.47D-08    CP:  1.00D+00  1.06D+00  1.11D+00  1.93D+00  1.84D+00
                    CP:  1.36D+00  1.18D+00
 E= -1491.00442104584     Delta-E=       -0.000000000459 Rises=F Damp=F
 DIIS: error= 2.44D-07 at cycle   8 NSaved=   8.
 NSaved= 8 IEnMin= 8 EnMin= -1491.00442104584     IErMin= 8 ErrMin= 2.44D-07
 ErrMax= 2.44D-07  0.00D+00 EMaxC= 1.00D-01 BMatC= 2.69D-11 BMatP= 7.45D-11
 IDIUse=1 WtCom= 1.00D+00 WtEn= 0.00D+00
 Coeff-Com: -0.165D-02 0.297D-01 0.347D-01-0.309D-01-0.145D+00-0.136D+00
 Coeff-Com:  0.388D+00 0.860D+00
 Coeff:     -0.165D-02 0.297D-01 0.347D-01-0.309D-01-0.145D+00-0.136D+00
 Coeff:      0.388D+00 0.860D+00
 Gap=     0.267 Goal=   None    Shift=    0.000
 RMSDP=8.50D-08 MaxDP=1.97D-06 DE=-4.59D-10 OVMax= 1.26D-05

 Cycle  17  Pass 1  IDiag  1:
 RMSU=  3.74D-08    CP:  1.00D+00  1.06D+00  1.12D+00  1.94D+00  1.90D+00
                    CP:  1.46D+00  1.44D+00  1.38D+00
 E= -1491.00442104598     Delta-E=       -0.000000000140 Rises=F Damp=F
 DIIS: error= 1.20D-07 at cycle   9 NSaved=   9.
 NSaved= 9 IEnMin= 9 EnMin= -1491.00442104598     IErMin= 9 ErrMin= 1.20D-07
 ErrMax= 1.20D-07  0.00D+00 EMaxC= 1.00D-01 BMatC= 4.07D-12 BMatP= 2.69D-11
 IDIUse=1 WtCom= 1.00D+00 WtEn= 0.00D+00
 Coeff-Com: -0.405D-03 0.341D-02 0.503D-02 0.972D-02-0.122D-01-0.582D-01
 Coeff-Com: -0.142D+00 0.113D+00 0.108D+01
 Coeff:     -0.405D-03 0.341D-02 0.503D-02 0.972D-02-0.122D-01-0.582D-01
 Coeff:     -0.142D+00 0.113D+00 0.108D+01
 Gap=     0.267 Goal=   None    Shift=    0.000
 RMSDP=4.66D-08 MaxDP=9.17D-07 DE=-1.40D-10 OVMax= 6.72D-06

 Cycle  18  Pass 1  IDiag  1:
 RMSU=  1.70D-08    CP:  1.00D+00  1.06D+00  1.12D+00  1.95D+00  1.92D+00
                    CP:  1.49D+00  1.55D+00  1.73D+00  1.42D+00
 E= -1491.00442104603     Delta-E=       -0.000000000051 Rises=F Damp=F
 DIIS: error= 5.35D-08 at cycle  10 NSaved=  10.
 NSaved=10 IEnMin=10 EnMin= -1491.00442104603     IErMin=10 ErrMin= 5.35D-08
 ErrMax= 5.35D-08  0.00D+00 EMaxC= 1.00D-01 BMatC= 9.74D-13 BMatP= 4.07D-12
 IDIUse=1 WtCom= 1.00D+00 WtEn= 0.00D+00
 Coeff-Com:  0.231D-03-0.559D-02-0.619D-02 0.107D-01 0.286D-01 0.954D-02
 Coeff-Com: -0.140D+00-0.174D+00 0.370D+00 0.908D+00
 Coeff:      0.231D-03-0.559D-02-0.619D-02 0.107D-01 0.286D-01 0.954D-02
 Coeff:     -0.140D+00-0.174D+00 0.370D+00 0.908D+00
 Gap=     0.267 Goal=   None    Shift=    0.000
 RMSDP=2.18D-08 MaxDP=3.92D-07 DE=-5.09D-11 OVMax= 3.07D-06

 Cycle  19  Pass 1  IDiag  1:
 RMSU=  6.10D-09    CP:  1.00D+00  1.06D+00  1.12D+00  1.96D+00  1.93D+00
                    CP:  1.51D+00  1.60D+00  1.90D+00  1.68D+00  1.20D+00
 E= -1491.00442104600     Delta-E=        0.000000000029 Rises=F Damp=F
 DIIS: error= 1.46D-08 at cycle  11 NSaved=  11.
 NSaved=11 IEnMin=10 EnMin= -1491.00442104603     IErMin=11 ErrMin= 1.46D-08
 ErrMax= 1.46D-08  0.00D+00 EMaxC= 1.00D-01 BMatC= 8.47D-14 BMatP= 9.74D-13
 IDIUse=1 WtCom= 1.00D+00 WtEn= 0.00D+00
 Coeff-Com:  0.976D-04-0.166D-02-0.205D-02 0.171D-02 0.761D-02 0.821D-02
 Coeff-Com: -0.193D-01-0.447D-01-0.338D-01 0.198D+00 0.886D+00
 Coeff:      0.976D-04-0.166D-02-0.205D-02 0.171D-02 0.761D-02 0.821D-02
 Coeff:     -0.193D-01-0.447D-01-0.338D-01 0.198D+00 0.886D+00
 Gap=     0.267 Goal=   None    Shift=    0.000
 RMSDP=4.74D-09 MaxDP=8.60D-08 DE= 2.91D-11 OVMax= 5.69D-07

 SCF Done:  E(RwB97XD) =  -1491.00442105     A.U. after   19 cycles
            NFock= 19  Conv=0.47D-08     -V/T= 2.0052
 KE= 1.483225744818D+03 PE=-6.017361060943D+03 EE= 1.789710056496D+03
 Leave Link  502 at Fri Mar  6 17:32:15 2026, MaxMem=  2415919104 cpu:             240.9 elap:              22.9
 (Enter /prod/precompiled/gaussian/16c2/g16/l508.exe)
 QCSCF skips out because SCF is already converged.
 Leave Link  508 at Fri Mar  6 17:32:16 2026, MaxMem=  2415919104 cpu:               0.1 elap:               0.1
 (Enter /prod/precompiled/gaussian/16c2/g16/l801.exe)
 DoSCS=F DFT=T ScalE2(SS,OS)=  1.000000  1.000000
 Range of M.O.s used for correlation:     1   272
 NBasis=   272 NAE=    64 NBE=    64 NFC=     0 NFV=     0
 NROrb=    272 NOA=    64 NOB=    64 NVA=   208 NVB=   208

 **** Warning!!: The largest alpha MO coefficient is  0.16806144D+02

 Leave Link  801 at Fri Mar  6 17:32:16 2026, MaxMem=  2415919104 cpu:               0.1 elap:               0.1
 (Enter /prod/precompiled/gaussian/16c2/g16/l1101.exe)
 Using compressed storage, NAtomX=    24.
 Will process     25 centers per pass.
   1 Symmetry operations used in ECPInt.
 ECPInt:  NShTT=    7750 NPrTT=   30142 LenC2=    7233 LenP2D=   19763.
 LDataN:  DoStor=T MaxTD1= 5 Len=  102
 R6Disp: Adding Grimme-D2 dispersion energy 1st derivatives to the gradient.
 Leave Link 1101 at Fri Mar  6 17:32:16 2026, MaxMem=  2415919104 cpu:               1.4 elap:               0.2
 (Enter /prod/precompiled/gaussian/16c2/g16/l1102.exe)
 Symmetrizing basis deriv contribution to polar:
 IMax=3 JMax=2 DiffMx= 0.00D+00
 Leave Link 1102 at Fri Mar  6 17:32:16 2026, MaxMem=  2415919104 cpu:               0.2 elap:               0.1
 (Enter /prod/precompiled/gaussian/16c2/g16/l1110.exe)
 Forming Gx(P) for the SCF density, NAtomX=    24.
 Integral derivatives from FoFJK, PRISM(SPDF).
 Do as many integral derivatives as possible in FoFJK.
 G2DrvN: MDV=    2415916544.
 G2DrvN: will do    25 centers at a time, making    1 passes.
 Calling FoFCou, ICntrl=  3107 FMM=F I1Cent=   0 AccDes= 0.00D+00.
 FoFJK:  IHMeth= 1 ICntrl=    3107 DoSepK=T KAlg= 0 I1Cent=           0 FoldK=F
 IRaf=         1 NMat=       1 IRICut=       1 DoRegI=T DoRafI=F ISym2E= 0 IDoP0=0 IntGTp=1.
 FoFCou: FMM=F IPFlag=           0 FMFlag=      100000 FMFlg1=           0
         NFxFlg=           0 DoJE=F BraDBF=F KetDBF=F FulRan=T
         wScrn=  0.000000 ICntrl=      3507 IOpCl=  0 I1Cent=           0 NGrid=           0
         NMat0=    1 NMatS0=      1 NMatT0=    0 NMatD0=    1 NMtDS0=    0 NMtDT0=    0
 Symmetry not used in FoFCou.
 End of G2Drv F.D. properties file   721 does not exist.
 End of G2Drv F.D. properties file   722 does not exist.
 End of G2Drv F.D. properties file   788 does not exist.
 Leave Link 1110 at Fri Mar  6 17:32:38 2026, MaxMem=  2415919104 cpu:             257.4 elap:              21.9
 (Enter /prod/precompiled/gaussian/16c2/g16/l1002.exe)
 Minotr:  Closed shell wavefunction.
          IDoAtm=111111111111111111111111
          Direct CPHF calculation.
          Differentiating once with respect to electric field.
                with respect to dipole field.
          Differentiating once with respect to nuclear coordinates.
          Requested convergence is 1.0D-08 RMS, and 1.0D-07 maximum.
          Secondary convergence is 1.0D-12 RMS, and 1.0D-12 maximum.
          NewPWx=T KeepS1=F KeepF1=F KeepIn=T MapXYZ=F SortEE=F KeepMc=T.
         7195 words used for storage of precomputed grid.
 Keep R1 ints in memory in canonical form, NReq=1402150885.
 FoFCou: FMM=F IPFlag=           0 FMFlag=           0 FMFlg1=           0
         NFxFlg=           0 DoJE=F BraDBF=F KetDBF=F FulRan=T
         wScrn=  0.000000 ICntrl=       600 IOpCl=  0 I1Cent=           0 NGrid=           0
         NMat0=    1 NMatS0=  37128 NMatT0=    0 NMatD0=    1 NMtDS0=    0 NMtDT0=    0
 Symmetry not used in FoFCou.
 Two-electron integral symmetry not used.
          MDV=    2415919104 using IRadAn=       1.
          Solving linear equations simultaneously, MaxMat=       0.
          There are    75 degrees of freedom in the 1st order CPHF.  IDoFFX=6 NUNeed=     3.
     72 vectors produced by pass  0 Test12= 1.77D-14 1.33D-09 XBig12= 9.59D+01 5.40D+00.
 AX will form    72 AO Fock derivatives at one time.
     72 vectors produced by pass  1 Test12= 1.77D-14 1.33D-09 XBig12= 9.58D+00 8.25D-01.
     72 vectors produced by pass  2 Test12= 1.77D-14 1.33D-09 XBig12= 3.46D-01 9.84D-02.
     72 vectors produced by pass  3 Test12= 1.77D-14 1.33D-09 XBig12= 5.82D-03 8.97D-03.
     72 vectors produced by pass  4 Test12= 1.77D-14 1.33D-09 XBig12= 5.32D-05 9.51D-04.
     72 vectors produced by pass  5 Test12= 1.77D-14 1.33D-09 XBig12= 3.21D-07 5.71D-05.
     69 vectors produced by pass  6 Test12= 1.77D-14 1.33D-09 XBig12= 2.02D-09 4.79D-06.
     43 vectors produced by pass  7 Test12= 1.77D-14 1.33D-09 XBig12= 9.67D-12 3.21D-07.
      3 vectors produced by pass  8 Test12= 1.77D-14 1.33D-09 XBig12= 4.64D-14 2.35D-08.
      3 vectors produced by pass  9 Test12= 1.77D-14 1.33D-09 XBig12= 2.19D-16 1.73D-09.
 InvSVY:  IOpt=1 It=  1 EMax= 5.33D-15
 Solved reduced A of dimension   550 with    75 vectors.
 FullF1:  Do perturbations      1 to       3.
 Isotropic polarizability for W=    0.000000      159.47 Bohr**3.
 End of Minotr F.D. properties file   721 does not exist.
 End of Minotr F.D. properties file   722 does not exist.
 End of Minotr F.D. properties file   788 does not exist.
 Leave Link 1002 at Fri Mar  6 17:33:19 2026, MaxMem=  2415919104 cpu:             452.8 elap:              40.6
 (Enter /prod/precompiled/gaussian/16c2/g16/l601.exe)
 Copying SCF densities to generalized density rwf, IOpCl= 0 IROHF=0.

 **********************************************************************

            Population analysis using the SCF Density.

 **********************************************************************

 Alpha  occ. eigenvalues -- -101.69064-101.67715 -14.51342 -14.50611 -10.38653
 Alpha  occ. eigenvalues --  -10.36217 -10.36132 -10.35006 -10.33235 -10.32927
 Alpha  occ. eigenvalues --  -10.32577 -10.32344 -10.31757 -10.31528 -10.31422
 Alpha  occ. eigenvalues --  -10.31228  -9.59821  -9.58498  -7.35220  -7.34234
 Alpha  occ. eigenvalues --   -7.34180  -7.33889  -7.32903  -7.32880  -1.14304
 Alpha  occ. eigenvalues --   -1.00807  -0.99674  -0.95321  -0.93723  -0.90639
 Alpha  occ. eigenvalues --   -0.86619  -0.84306  -0.83359  -0.78108  -0.73505
 Alpha  occ. eigenvalues --   -0.71958  -0.70741  -0.66814  -0.64926  -0.60222
 Alpha  occ. eigenvalues --   -0.58910  -0.58451  -0.57893  -0.54903  -0.53720
 Alpha  occ. eigenvalues --   -0.52843  -0.52390  -0.51960  -0.51679  -0.48310
 Alpha  occ. eigenvalues --   -0.48060  -0.46709  -0.46167  -0.45055  -0.44597
 Alpha  occ. eigenvalues --   -0.43468  -0.41878  -0.40323  -0.39314  -0.35257
 Alpha  occ. eigenvalues --   -0.34556  -0.33772  -0.32570  -0.28864
 Alpha virt. eigenvalues --   -0.02129   0.03709   0.04876   0.05128   0.08386
 Alpha virt. eigenvalues --    0.10479   0.11691   0.15308   0.16451   0.17942
 Alpha virt. eigenvalues --    0.18457   0.21106   0.21313   0.21600   0.21966
 Alpha virt. eigenvalues --    0.22592   0.22789   0.25218   0.31098   0.32750
 Alpha virt. eigenvalues --    0.33325   0.34669   0.35330   0.36238   0.36375
 Alpha virt. eigenvalues --    0.37540   0.38822   0.39282   0.41341   0.45052
 Alpha virt. eigenvalues --    0.45610   0.46787   0.47573   0.49989   0.50476
 Alpha virt. eigenvalues --    0.50921   0.51544   0.53067   0.53548   0.54351
 Alpha virt. eigenvalues --    0.54626   0.55563   0.56134   0.57132   0.57999
 Alpha virt. eigenvalues --    0.58964   0.60196   0.60496   0.61089   0.63287
 Alpha virt. eigenvalues --    0.63427   0.65307   0.67033   0.67828   0.68155
 Alpha virt. eigenvalues --    0.68312   0.69789   0.70408   0.71922   0.72277
 Alpha virt. eigenvalues --    0.73572   0.73907   0.74206   0.74907   0.75573
 Alpha virt. eigenvalues --    0.76096   0.77888   0.78258   0.78908   0.79167
 Alpha virt. eigenvalues --    0.80097   0.80485   0.81026   0.81973   0.82667
 Alpha virt. eigenvalues --    0.84707   0.86406   0.86702   0.87058   0.88042
 Alpha virt. eigenvalues --    0.88304   0.88899   0.89689   0.91105   0.91304
 Alpha virt. eigenvalues --    0.92878   0.93643   0.94977   0.96904   1.00204
 Alpha virt. eigenvalues --    1.00422   1.02555   1.04037   1.06383   1.08355
 Alpha virt. eigenvalues --    1.10165   1.11276   1.12703   1.13491   1.19338
 Alpha virt. eigenvalues --    1.21398   1.24610   1.25284   1.26084   1.27665
 Alpha virt. eigenvalues --    1.29843   1.30883   1.31040   1.32954   1.33496
 Alpha virt. eigenvalues --    1.34281   1.35280   1.35717   1.35941   1.37548
 Alpha virt. eigenvalues --    1.39451   1.43667   1.44573   1.47851   1.48439
 Alpha virt. eigenvalues --    1.56399   1.57731   1.58395   1.59713   1.62058
 Alpha virt. eigenvalues --    1.69847   1.73883   1.74441   1.76976   1.77448
 Alpha virt. eigenvalues --    1.78506   1.78819   1.81875   1.82879   1.83554
 Alpha virt. eigenvalues --    1.83886   1.84526   1.85225   1.86093   1.86941
 Alpha virt. eigenvalues --    1.87327   1.88057   1.90412   1.91356   1.92514
 Alpha virt. eigenvalues --    1.97683   1.98299   2.00770   2.01336   2.02160
 Alpha virt. eigenvalues --    2.02901   2.03656   2.04232   2.07602   2.08805
 Alpha virt. eigenvalues --    2.10373   2.13979   2.16851   2.17347   2.20431
 Alpha virt. eigenvalues --    2.21914   2.22560   2.24497   2.28662   2.30115
 Alpha virt. eigenvalues --    2.31429   2.31820   2.32476   2.34209   2.34734
 Alpha virt. eigenvalues --    2.36056   2.38165   2.38991   2.39719   2.41406
 Alpha virt. eigenvalues --    2.44766   2.47596   2.52617   2.57093   2.57570
 Alpha virt. eigenvalues --    2.61706   2.63378   2.68316   2.68528   2.69965
 Alpha virt. eigenvalues --    2.70691   2.72190   2.77821   2.79099   2.80520
 Alpha virt. eigenvalues --    2.82173   2.88735   2.89699   2.90160   2.91352
 Alpha virt. eigenvalues --    2.91963   2.96738   3.04332   3.08184   3.11188
 Alpha virt. eigenvalues --    3.13413   3.16714   3.24160   3.31373   3.43223
 Alpha virt. eigenvalues --    3.59488   3.67032   3.71644
          Condensed to atoms (all electrons):
               1          2          3          4          5          6
     1  C    5.251062   0.241661  -0.072432   0.077529  -0.142753   0.101182
     2  C    0.241661   5.209748   0.259896   0.356853   0.085911  -0.153169
     3  Cl  -0.072432   0.259896  16.935134  -0.050113   0.002691   0.000605
     4  C    0.077529   0.356853  -0.050113   4.974919   0.306962   0.078180
     5  C   -0.142753   0.085911   0.002691   0.306962   5.065977   0.293800
     6  C    0.101182  -0.153169   0.000605   0.078180   0.293800   5.053670
     7  C    0.322922   0.074170   0.002392  -0.114112   0.069082   0.303397
     8  N    0.297183  -0.082232   0.002252   0.004639  -0.000100   0.006840
     9  N   -0.037110  -0.002052  -0.000275  -0.000265   0.000025  -0.000157
    10  C   -0.016346   0.001053   0.002225  -0.000055  -0.000042  -0.000000
    11  C   -0.000022  -0.000664   0.001059   0.000143   0.000022   0.000132
    12  Cl  -0.029349   0.003115   0.000113  -0.001679   0.002176  -0.002873
    13  C    0.000040   0.000102  -0.000050  -0.000001  -0.000001  -0.000005
    14  C   -0.000004  -0.000000   0.000001  -0.000000  -0.000000   0.000000
    15  C    0.000034   0.000004  -0.000003   0.000000   0.000000   0.000000
    16  C    0.000077  -0.000150  -0.000181  -0.000003   0.000000  -0.000002
    17  H    0.017001  -0.065714   0.001511   0.441194  -0.060093   0.012490
    18  H   -0.001703   0.013992  -0.000107  -0.062153   0.446344  -0.064820
    19  H    0.013957  -0.001472   0.000007   0.012384  -0.064620   0.444629
    20  H   -0.068304   0.017306  -0.000087  -0.002357   0.012931  -0.065006
    21  H    0.000029  -0.000004  -0.000001   0.000001  -0.000000   0.000000
    22  H    0.000000   0.000000   0.000000   0.000000   0.000000  -0.000000
    23  H    0.000000  -0.000000   0.000000  -0.000000   0.000000  -0.000000
    24  H    0.000158  -0.000012   0.000010   0.000000   0.000000   0.000000
               7          8          9         10         11         12
     1  C    0.322922   0.297183  -0.037110  -0.016346  -0.000022  -0.029349
     2  C    0.074170  -0.082232  -0.002052   0.001053  -0.000664   0.003115
     3  Cl   0.002392   0.002252  -0.000275   0.002225   0.001059   0.000113
     4  C   -0.114112   0.004639  -0.000265  -0.000055   0.000143  -0.001679
     5  C    0.069082  -0.000100   0.000025  -0.000042   0.000022   0.002176
     6  C    0.303397   0.006840  -0.000157  -0.000000   0.000132  -0.002873
     7  C    5.016824  -0.065402  -0.003043   0.001802  -0.000131   0.008695
     8  N   -0.065402   6.634462   0.335795  -0.047961  -0.005789  -0.002710
     9  N   -0.003043   0.335795   6.600681   0.333011  -0.062497  -0.000858
    10  C    0.001802  -0.047961   0.333011   5.260357   0.129272  -0.048640
    11  C   -0.000131  -0.005789  -0.062497   0.129272   5.377613   0.259652
    12  Cl   0.008695  -0.002710  -0.000858  -0.048640   0.259652  16.919130
    13  C    0.000025  -0.000303   0.002445   0.084234   0.342382  -0.068252
    14  C    0.000002   0.000023  -0.000523  -0.138544   0.085881   0.003105
    15  C    0.000001  -0.000340   0.010178   0.079142  -0.139266   0.000623
    16  C   -0.000138   0.008829  -0.089254   0.371102   0.019748   0.001823
    17  H   -0.001960  -0.000079  -0.000000   0.000005  -0.000004  -0.000012
    18  H    0.012602   0.000007  -0.000000   0.000000   0.000000  -0.000020
    19  H   -0.061657  -0.000104  -0.000000   0.000004  -0.000000  -0.000064
    20  H    0.449534  -0.006168   0.001228   0.000603  -0.000229   0.000230
    21  H   -0.000005   0.000006  -0.000040   0.016475  -0.065028   0.002479
    22  H    0.000000  -0.000000   0.000008  -0.001475   0.013276  -0.000141
    23  H   -0.000000   0.000003  -0.000147   0.012558  -0.001859   0.000007
    24  H   -0.000014  -0.000370   0.012269  -0.060012   0.021885  -0.000057
              13         14         15         16         17         18
     1  C    0.000040  -0.000004   0.000034   0.000077   0.017001  -0.001703
     2  C    0.000102  -0.000000   0.000004  -0.000150  -0.065714   0.013992
     3  Cl  -0.000050   0.000001  -0.000003  -0.000181   0.001511  -0.000107
     4  C   -0.000001  -0.000000   0.000000  -0.000003   0.441194  -0.062153
     5  C   -0.000001  -0.000000   0.000000   0.000000  -0.060093   0.446344
     6  C   -0.000005   0.000000   0.000000  -0.000002   0.012490  -0.064820
     7  C    0.000025   0.000002   0.000001  -0.000138  -0.001960   0.012602
     8  N   -0.000303   0.000023  -0.000340   0.008829  -0.000079   0.000007
     9  N    0.002445  -0.000523   0.010178  -0.089254  -0.000000  -0.000000
    10  C    0.084234  -0.138544   0.079142   0.371102   0.000005   0.000000
    11  C    0.342382   0.085881  -0.139266   0.019748  -0.000004   0.000000
    12  Cl  -0.068252   0.003105   0.000623   0.001823  -0.000012  -0.000020
    13  C    4.970297   0.310652   0.069793  -0.099512  -0.000000  -0.000000
    14  C    0.310652   5.061127   0.251347   0.085614   0.000000  -0.000000
    15  C    0.069793   0.251347   5.151528   0.250050  -0.000000   0.000000
    16  C   -0.099512   0.085614   0.250050   5.064850   0.000000  -0.000000
    17  H   -0.000000   0.000000  -0.000000   0.000000   0.644598  -0.011325
    18  H   -0.000000  -0.000000   0.000000  -0.000000  -0.011325   0.649480
    19  H   -0.000000   0.000000  -0.000000   0.000000  -0.000189  -0.010791
    20  H    0.000016   0.000000  -0.000001  -0.000069   0.000019  -0.000201
    21  H    0.440839  -0.057059   0.013452  -0.002541  -0.000000   0.000000
    22  H   -0.058551   0.443729  -0.063098   0.011751  -0.000000  -0.000000
    23  H    0.012644  -0.065952   0.451508  -0.061972   0.000000   0.000000
    24  H   -0.002907   0.012861  -0.070816   0.436072  -0.000000   0.000000
              19         20         21         22         23         24
     1  C    0.013957  -0.068304   0.000029   0.000000   0.000000   0.000158
     2  C   -0.001472   0.017306  -0.000004   0.000000  -0.000000  -0.000012
     3  Cl   0.000007  -0.000087  -0.000001   0.000000   0.000000   0.000010
     4  C    0.012384  -0.002357   0.000001   0.000000  -0.000000   0.000000
     5  C   -0.064620   0.012931  -0.000000   0.000000   0.000000   0.000000
     6  C    0.444629  -0.065006   0.000000  -0.000000  -0.000000   0.000000
     7  C   -0.061657   0.449534  -0.000005   0.000000  -0.000000  -0.000014
     8  N   -0.000104  -0.006168   0.000006  -0.000000   0.000003  -0.000370
     9  N   -0.000000   0.001228  -0.000040   0.000008  -0.000147   0.012269
    10  C    0.000004   0.000603   0.016475  -0.001475   0.012558  -0.060012
    11  C   -0.000000  -0.000229  -0.065028   0.013276  -0.001859   0.021885
    12  Cl  -0.000064   0.000230   0.002479  -0.000141   0.000007  -0.000057
    13  C   -0.000000   0.000016   0.440839  -0.058551   0.012644  -0.002907
    14  C    0.000000   0.000000  -0.057059   0.443729  -0.065952   0.012861
    15  C   -0.000000  -0.000001   0.013452  -0.063098   0.451508  -0.070816
    16  C    0.000000  -0.000069  -0.002541   0.011751  -0.061972   0.436072
    17  H   -0.000189   0.000019  -0.000000  -0.000000   0.000000  -0.000000
    18  H   -0.010791  -0.000201   0.000000  -0.000000   0.000000   0.000000
    19  H    0.650369  -0.010894  -0.000000  -0.000000   0.000000  -0.000000
    20  H   -0.010894   0.653843  -0.000001   0.000000   0.000000  -0.000014
    21  H   -0.000000  -0.000001   0.635030  -0.011306  -0.000203   0.000020
    22  H   -0.000000   0.000000  -0.011306   0.637234  -0.010022  -0.000193
    23  H    0.000000   0.000000  -0.000203  -0.010022   0.638347  -0.010697
    24  H   -0.000000  -0.000014   0.000020  -0.000193  -0.010697   0.624401
 Mulliken charges:
               1
     1  C    0.045189
     2  C    0.041659
     3  Cl  -0.084647
     4  C   -0.022067
     5  C   -0.018312
     6  C   -0.008894
     7  C   -0.014987
     8  N   -0.078480
     9  N   -0.099417
    10  C    0.021234
    11  C    0.024422
    12  Cl  -0.046492
    13  C   -0.003885
    14  C    0.007741
    15  C   -0.004134
    16  C    0.003904
    17  H    0.022559
    18  H    0.028694
    19  H    0.028443
    20  H    0.017622
    21  H    0.027857
    22  H    0.038789
    23  H    0.035785
    24  H    0.037417
 Sum of Mulliken charges =  -0.00000
 Mulliken charges with hydrogens summed into heavy atoms:
               1
     1  C    0.045189
     2  C    0.041659
     3  Cl  -0.084647
     4  C    0.000493
     5  C    0.010382
     6  C    0.019549
     7  C    0.002635
     8  N   -0.078480
     9  N   -0.099417
    10  C    0.021234
    11  C    0.024422
    12  Cl  -0.046492
    13  C    0.023972
    14  C    0.046529
    15  C    0.031651
    16  C    0.041320
 APT charges:
               1
     1  C    0.237929
     2  C    0.242953
     3  Cl  -0.272614
     4  C   -0.046581
     5  C   -0.079432
     6  C    0.006160
     7  C   -0.104856
     8  N   -0.378839
     9  N    0.218112
    10  C   -0.123239
    11  C    0.336590
    12  Cl  -0.252199
    13  C   -0.213167
    14  C    0.072862
    15  C   -0.081131
    16  C    0.008040
    17  H    0.059347
    18  H    0.037933
    19  H    0.036504
    20  H    0.057709
    21  H    0.058703
    22  H    0.046308
    23  H    0.046497
    24  H    0.086411
 Sum of APT charges =  -0.00000
 APT charges with hydrogens summed into heavy atoms:
               1
     1  C    0.237929
     2  C    0.242953
     3  Cl  -0.272614
     4  C    0.012767
     5  C   -0.041499
     6  C    0.042664
     7  C   -0.047147
     8  N   -0.378839
     9  N    0.218112
    10  C   -0.123239
    11  C    0.336590
    12  Cl  -0.252199
    13  C   -0.154464
    14  C    0.119170
    15  C   -0.034634
    16  C    0.094451
 Electronic spatial extent (au):  <R**2>=           5202.4268
 Charge=             -0.0000 electrons
 Dipole moment (field-independent basis, Debye):
    X=              2.8748    Y=             -1.3331    Z=             -1.5490  Tot=              3.5272
 Quadrupole moment (field-independent basis, Debye-Ang):
   XX=            -90.6500   YY=            -98.5441   ZZ=            -98.2356
   XY=             -8.7586   XZ=              9.0035   YZ=             -3.7055
 Traceless Quadrupole moment (field-independent basis, Debye-Ang):
   XX=              5.1599   YY=             -2.7342   ZZ=             -2.4257
   XY=             -8.7586   XZ=              9.0035   YZ=             -3.7055
 Octapole moment (field-independent basis, Debye-Ang**2):
  XXX=           -315.4526  YYY=            272.6216  ZZZ=            -68.1981  XYY=           -121.9519
  XXY=             44.3632  XXZ=              7.0889  XZZ=           -125.8855  YZZ=             79.8628
  YYZ=            -15.1176  XYZ=            -27.3360
 Hexadecapole moment (field-independent basis, Debye-Ang**3):
 XXXX=          -2954.4170 YYYY=          -1877.1764 ZZZZ=          -1619.1911 XXXY=            627.7885
 XXXZ=           -475.2852 YYYX=            885.5260 YYYZ=            335.4865 ZZZX=           -500.6387
 ZZZY=            311.4764 XXYY=           -790.5602 XXZZ=           -804.6850 YYZZ=           -526.2206
 XXYZ=             15.1853 YYXZ=           -109.3670 ZZXY=            226.7107
 N-N= 1.253420838583D+03 E-N=-6.017361063055D+03  KE= 1.483225744818D+03
  Exact polarizability:     163.568     -26.866     137.059      39.217     -29.982     177.779
 Approx polarizability:     179.093     -14.358     164.101      24.103     -28.044     212.729
 No NMR shielding tensors so no spin-rotation constants.
 Leave Link  601 at Fri Mar  6 17:33:20 2026, MaxMem=  2415919104 cpu:               0.9 elap:               0.2
 (Enter /prod/precompiled/gaussian/16c2/g16/l701.exe)
 ... and contract with generalized density number  0.
 Compute integral second derivatives.
 R6Disp: Adding Grimme-D2 dispersion energy 2nd derivatives to the Hessian.
   1 Symmetry operations used in ECPInt.
 ECPInt:  NShTT=    7750 NPrTT=   30142 LenC2=    7233 LenP2D=   19763.
 LDataN:  DoStor=T MaxTD1= 6 Len=  172
 Leave Link  701 at Fri Mar  6 17:33:20 2026, MaxMem=  2415919104 cpu:               1.8 elap:               0.3
 (Enter /prod/precompiled/gaussian/16c2/g16/l702.exe)
 L702 exits ... SP integral derivatives will be done elsewhere.
 Leave Link  702 at Fri Mar  6 17:33:20 2026, MaxMem=  2415919104 cpu:               0.1 elap:               0.1
 (Enter /prod/precompiled/gaussian/16c2/g16/l703.exe)
 Integral derivatives from FoFJK, PRISM(SPDF).
 Compute integral second derivatives, UseDBF=F ICtDFT=           0.
 Calling FoFJK, ICntrl=    100127 FMM=F ISym2X=0 I1Cent= 0 IOpClX= 0 NMat=1 NMatS=1 NMatT=0.
 FoFJK:  IHMeth= 1 ICntrl=  100127 DoSepK=T KAlg= 0 I1Cent=           0 FoldK=F
 IRaf=         1 NMat=       1 IRICut=       1 DoRegI=T DoRafI=F ISym2E= 0 IDoP0=0 IntGTp=1.
 FoFCou: FMM=F IPFlag=           0 FMFlag=      100000 FMFlg1=         800
         NFxFlg=           0 DoJE=F BraDBF=F KetDBF=F FulRan=T
         wScrn=  0.000000 ICntrl=    100527 IOpCl=  0 I1Cent=           0 NGrid=           0
         NMat0=    1 NMatS0=      1 NMatT0=    0 NMatD0=    1 NMtDS0=    0 NMtDT0=    0
 Symmetry not used in FoFCou.
 Leave Link  703 at Fri Mar  6 17:34:08 2026, MaxMem=  2415919104 cpu:             550.7 elap:              48.2
 (Enter /prod/precompiled/gaussian/16c2/g16/l716.exe)
 Dipole        = 1.13103666D+00-5.24492133D-01-6.09422547D-01
 Polarizability= 1.63567837D+02-2.68655917D+01 1.37058989D+02
                 3.92172539D+01-2.99823296D+01 1.77778766D+02
 Full mass-weighted force constant matrix:
 Low frequencies ---  -45.1672   -5.1826   -0.0033   -0.0032    0.0021    4.9491
 Low frequencies ---    7.8600   48.4179   70.3804
 ******    1 imaginary frequencies (negative Signs) ****** 
 Diagonal vibrational polarizability:
        9.8554923      23.5928185      12.0224546
 Harmonic frequencies (cm**-1), IR intensities (KM/Mole), Raman scattering
 activities (A**4/AMU), depolarization ratios for plane and unpolarized
 incident light, reduced masses (AMU), force constants (mDyne/A),
 and normal coordinates:
                           1         2         3         4         5
                           A         A         A         A         A
       Frequencies ---   -45.1567   48.4046   70.3793   95.1782  157.8071
    Reduced masses ---     8.3745   11.9245    6.2300    5.0896    4.7228
   Force constants ---     0.0101    0.0165    0.0182    0.0272    0.0693
    IR Intensities ---     1.4496    0.1663    0.7427    0.0132    0.1739
 Coord Atom Element:
   1     1     6          0.03400  -0.05117  -0.05983  -0.00669   0.05087
   2     1     6          0.02783  -0.07405  -0.04038  -0.05536   0.00902
   3     1     6          0.04229  -0.05198   0.07822  -0.05594   0.00641
   1     2     6         -0.06373   0.04361   0.06583  -0.00765  -0.07675
   2     2     6          0.02579  -0.08031  -0.05365  -0.04982   0.01861
   3     2     6         -0.03787  -0.06534   0.04056  -0.01013   0.03283
   1     3    17         -0.12971   0.33827   0.05338  -0.00144   0.13223
   2     3    17          0.12304  -0.12592  -0.05045  -0.11568   0.00369
   3     3    17         -0.08678  -0.13243   0.04226   0.03450  -0.02378
   1     4     6         -0.08426  -0.04962   0.25830  -0.02446  -0.22610
   2     4     6         -0.06190  -0.06185  -0.08597  -0.00179   0.02825
   3     4     6         -0.07303  -0.03809  -0.00993   0.01710   0.06623
   1     5     6         -0.01923  -0.20705   0.32351  -0.02613  -0.07978
   2     5     6         -0.15022  -0.03798  -0.10746   0.03467   0.00863
   3     5     6         -0.03007  -0.00857  -0.01462  -0.00953   0.03565
   1     6     6          0.07939  -0.25554   0.16569  -0.01247   0.25380
   2     6     6         -0.14799  -0.03333  -0.08997   0.02775  -0.02577
   3     6     6          0.04846  -0.00554   0.03185  -0.05939  -0.03828
   1     7     6          0.11508  -0.18246  -0.03154  -0.00857   0.28589
   2     7     6         -0.06465  -0.04939  -0.05613  -0.01913  -0.02651
   3     7     6          0.08403  -0.02524   0.08309  -0.08048  -0.04501
   1     8     7          0.05789  -0.03717  -0.10372  -0.00856  -0.00633
   2     8     7          0.14883  -0.08429  -0.01906  -0.05361   0.01266
   3     8     7          0.09500  -0.05667   0.08960  -0.05567   0.00921
   1     9     7          0.05158  -0.03844  -0.06804   0.01736  -0.04374
   2     9     7          0.11598  -0.04124   0.01565   0.10932  -0.04295
   3     9     7          0.07890  -0.02333   0.06430   0.02815   0.02015
   1    10     6          0.02305  -0.03035  -0.07622   0.02767  -0.05209
   2    10     6         -0.02401  -0.00507   0.04830   0.15443  -0.03566
   3    10     6          0.00678   0.01597  -0.01046   0.06314   0.01260
   1    11     6          0.02499  -0.00129  -0.11187   0.00364  -0.08270
   2    11     6          0.00809   0.12217   0.07108  -0.01630  -0.02547
   3    11     6          0.01924   0.08427  -0.03917  -0.01283  -0.00866
   1    12    17          0.05750   0.01797  -0.11473   0.03498  -0.09026
   2    12    17          0.20461   0.24075   0.09719   0.09553  -0.00429
   3    12    17          0.11773   0.14536  -0.02648   0.03916   0.00421
   1    13     6          0.00493   0.00566  -0.10794  -0.04055  -0.07965
   2    13     6         -0.09723   0.16267   0.07208  -0.23978  -0.00997
   3    13     6         -0.03694   0.11097  -0.08817  -0.11029  -0.03255
   1    14     6         -0.01811  -0.02175  -0.06258  -0.04292  -0.04455
   2    14     6         -0.23423   0.06163   0.05469  -0.19684   0.03440
   3    14     6         -0.10617   0.06541  -0.12241  -0.08360  -0.02496
   1    15     6         -0.02088  -0.05535  -0.02236   0.00693  -0.01226
   2    15     6         -0.26712  -0.07952   0.03592   0.10783   0.05011
   3    15     6         -0.11929  -0.00824  -0.09825   0.05828   0.00574
   1    16     6          0.00073  -0.05913  -0.02519   0.03689  -0.02280
   2    16     6         -0.15623  -0.10129   0.03501   0.25604   0.00311
   3    16     6         -0.05982  -0.02639  -0.04461   0.11830   0.01811
   1    17     1         -0.15413   0.01634   0.37428  -0.03486  -0.39786
   2    17     1         -0.06199  -0.06793  -0.09935   0.00280   0.04555
   3    17     1         -0.13614  -0.04526  -0.05084   0.05779   0.10019
   1    18     1         -0.04201  -0.27914   0.49151  -0.03769  -0.17453
   2    18     1         -0.21988  -0.02388  -0.13432   0.06822   0.01427
   3    18     1         -0.05903   0.01152  -0.05860   0.00857   0.05589
   1    19     1          0.13422  -0.36430   0.20674  -0.01150   0.45932
   2    19     1         -0.21561  -0.01685  -0.10019   0.05825  -0.04952
   3    19     1          0.08116   0.01616   0.02672  -0.08226  -0.08484
   1    20     1          0.19746  -0.24783  -0.13485  -0.00738   0.50158
   2    20     1         -0.06461  -0.04261  -0.04203  -0.02427  -0.05159
   3    20     1          0.14045  -0.01660   0.12204  -0.12012  -0.09303
   1    21     1          0.00902   0.03180  -0.13937  -0.06803  -0.10059
   2    21     1         -0.06206   0.27021   0.08865  -0.42314  -0.01510
   3    21     1         -0.02176   0.16787  -0.10634  -0.19430  -0.05011
   1    22     1         -0.03235  -0.01573  -0.06090  -0.07830  -0.03883
   2    22     1         -0.30797   0.09348   0.05753  -0.37782   0.06059
   3    22     1         -0.14591   0.08818  -0.16783  -0.16247  -0.04047
   1    23     1         -0.03691  -0.07605   0.00984   0.01482   0.02070
   2    23     1         -0.36615  -0.16212   0.02278   0.18834   0.09216
   3    23     1         -0.16920  -0.04656  -0.12041   0.10117   0.01505
   1    24     1          0.00466  -0.08261   0.00756   0.05968  -0.00470
   2    24     1         -0.15360  -0.19118   0.01973   0.41241   0.00334
   3    24     1         -0.05559  -0.07482  -0.02196   0.18729   0.03357
                           6         7         8         9        10
                           A         A         A         A         A
       Frequencies ---   170.6054  185.3571  239.6531  273.7772  324.4281
    Reduced masses ---    10.4903    9.0426    7.7464    5.7634    6.5173
   Force constants ---     0.1799    0.1830    0.2621    0.2545    0.4042
    IR Intensities ---     1.4694    1.2327    0.1130    0.4138    0.2435
 Coord Atom Element:
   1     1     6         -0.00053  -0.02626   0.05602   0.28238  -0.04925
   2     1     6          0.01519   0.01793   0.08041  -0.03915  -0.15941
   3     1     6         -0.01668   0.10096  -0.05366  -0.05792   0.02464
   1     2     6          0.00272   0.01026   0.03176   0.29573  -0.03540
   2     2     6          0.02391   0.01102   0.06605  -0.03799  -0.14775
   3     2     6         -0.02242   0.07860  -0.10444  -0.05065   0.03249
   1     3    17         -0.03060   0.02099  -0.01652  -0.05749  -0.02992
   2     3    17          0.16006   0.12716  -0.18261   0.03635   0.00629
   3     3    17         -0.10987   0.00189   0.07670   0.02033  -0.14171
   1     4     6          0.08945  -0.00544   0.04941   0.19549   0.00054
   2     4     6          0.02186  -0.04501   0.04449  -0.03457  -0.00102
   3     4     6         -0.04664   0.05176  -0.11206  -0.02870   0.11255
   1     5     6          0.10159  -0.03044  -0.02924  -0.16467   0.03331
   2     5     6          0.05981  -0.07665  -0.02569   0.00342   0.15510
   3     5     6         -0.07034   0.08462  -0.05395   0.05239   0.01693
   1     6     6         -0.02867  -0.01912  -0.05921  -0.14445   0.01331
   2     6     6          0.07289  -0.07365  -0.01578   0.00096   0.15071
   3     6     6         -0.04919   0.11036   0.01745   0.04154  -0.06754
   1     7     6         -0.08871  -0.00494   0.03632   0.22241  -0.05512
   2     7     6          0.07080  -0.02008   0.00802  -0.03218  -0.00716
   3     7     6         -0.04094   0.12346   0.01980  -0.04398  -0.10214
   1     8     7          0.06455  -0.10705   0.10225   0.06117  -0.05604
   2     8     7         -0.16660  -0.10101   0.34157  -0.04013  -0.01382
   3     8     7         -0.08517   0.04328   0.05331  -0.04961   0.13563
   1     9     7          0.02425  -0.09937   0.03314  -0.04278  -0.03965
   2     9     7         -0.27833  -0.27232   0.14450  -0.06611   0.14523
   3     9     7         -0.08900  -0.11022   0.00516   0.07760   0.25501
   1    10     6          0.05816  -0.08747  -0.03330  -0.06126  -0.07307
   2    10     6         -0.18171  -0.14252  -0.21773  -0.00467  -0.08216
   3    10     6          0.05341  -0.16160  -0.10991   0.08376   0.09367
   1    11     6         -0.00717  -0.03835  -0.03655  -0.13134  -0.12881
   2    11     6         -0.15845  -0.14091  -0.22311   0.04039  -0.11368
   3    11     6          0.03248  -0.14492  -0.10438   0.03436   0.01866
   1    12    17         -0.22114   0.22260  -0.04486  -0.01956   0.12865
   2    12    17          0.04289   0.14261   0.05450   0.01984  -0.00380
   3    12    17          0.24358  -0.09786   0.06139  -0.03432  -0.01205
   1    13     6          0.00079  -0.04922  -0.01900  -0.13542  -0.11102
   2    13     6         -0.14119  -0.18606  -0.12845   0.04784  -0.03240
   3    13     6         -0.09936  -0.06599  -0.06827  -0.00834  -0.04645
   1    14     6          0.10397  -0.04993   0.03009  -0.08068   0.04603
   2    14     6          0.01123   0.03893   0.16202   0.01896   0.13775
   3    14     6         -0.06032   0.06608   0.07897  -0.05989  -0.04510
   1    15     6          0.19504  -0.05721   0.02393  -0.01182   0.10354
   2    15     6          0.13479   0.22055   0.14828  -0.00317   0.01403
   3    15     6          0.05958   0.11556   0.07177  -0.01521  -0.04289
   1    16     6          0.14696  -0.08213  -0.03204  -0.01268   0.05543
   2    16     6         -0.03291   0.03725  -0.13394  -0.00200  -0.13506
   3    16     6          0.09377  -0.05533  -0.06400   0.05966   0.01296
   1    17     1          0.15785  -0.00459   0.07150   0.20030   0.03841
   2    17     1          0.01773  -0.04935   0.03734  -0.03549   0.01082
   3    17     1         -0.03198   0.00574  -0.17340  -0.03321   0.28834
   1    18     1          0.19030  -0.05138  -0.07141  -0.45332   0.08327
   2    18     1          0.07140  -0.09839  -0.07993   0.03747   0.24489
   3    18     1         -0.08099   0.07818  -0.07235   0.12205   0.05103
   1    19     1         -0.06309  -0.02817  -0.13105  -0.41427   0.03798
   2    19     1          0.07792  -0.09813  -0.03907   0.03007   0.22423
   3    19     1         -0.04224   0.13176   0.05672   0.10431  -0.13008
   1    20     1         -0.15458  -0.02619   0.06297   0.25217  -0.10202
   2    20     1          0.07463  -0.01073   0.01117  -0.03490  -0.02727
   3    20     1         -0.05318   0.18371   0.05850  -0.04513  -0.28330
   1    21     1         -0.08081  -0.01520  -0.01726  -0.17010  -0.19549
   2    21     1         -0.17578  -0.27239  -0.11701   0.06160   0.01921
   3    21     1         -0.17395  -0.06937  -0.06319  -0.02891  -0.09137
   1    22     1          0.11452  -0.03790   0.07754  -0.08020   0.08857
   2    22     1          0.05622   0.10669   0.40720   0.01414   0.34542
   3    22     1         -0.10411   0.13879   0.20653  -0.13582  -0.05605
   1    23     1          0.29943  -0.06197   0.07091   0.04270   0.19274
   2    23     1          0.30135   0.45327   0.38159  -0.02353   0.08181
   3    23     1          0.10898   0.25166   0.18526  -0.05183  -0.04363
   1    24     1          0.20733  -0.11637  -0.03112   0.01952   0.14768
   2    24     1         -0.04756   0.07249  -0.10692  -0.02073  -0.17924
   3    24     1          0.14221  -0.07493  -0.05425   0.08117   0.07961
                          11        12        13        14        15
                           A         A         A         A         A
       Frequencies ---   356.8154  402.3537  415.2387  460.7078  468.1157
    Reduced masses ---     6.4301    8.9677    6.3742    4.3905    3.6973
   Force constants ---     0.4823    0.8554    0.6476    0.5491    0.4774
    IR Intensities ---     0.7555    7.6240    1.3412    6.9486    0.3440
 Coord Atom Element:
   1     1     6         -0.01348  -0.14852   0.09113   0.14801  -0.04032
   2     1     6          0.16160  -0.01684  -0.01022  -0.00369   0.06764
   3     1     6          0.01397  -0.03561  -0.13121   0.00163   0.05805
   1     2     6         -0.05196   0.04450   0.06200   0.28972  -0.03067
   2     2     6          0.14427  -0.01256   0.03977  -0.03796   0.05238
   3     2     6         -0.10420   0.04825   0.02991  -0.07223  -0.03442
   1     3    17          0.00418   0.02715   0.05428  -0.04879  -0.00778
   2     3    17         -0.08821   0.08559   0.12462  -0.05055  -0.03856
   3     3    17          0.03268   0.08827   0.17683  -0.07723  -0.01864
   1     4     6         -0.07603   0.14660  -0.17169  -0.12476   0.04157
   2     4     6          0.07985  -0.07710  -0.07366   0.06576   0.03595
   3     4     6         -0.15755  -0.00137   0.00006   0.07449  -0.07794
   1     5     6          0.00086  -0.14728   0.07168   0.02549  -0.04756
   2     5     6         -0.03281  -0.05042  -0.12841   0.02913   0.01224
   3     5     6         -0.11509   0.05341  -0.07132   0.07815  -0.03286
   1     6     6          0.01436  -0.03100   0.00423   0.15655   0.00752
   2     6     6         -0.02152  -0.07020  -0.12946   0.01620   0.01517
   3     6     6          0.01794  -0.06316  -0.13757   0.07894   0.04417
   1     7     6         -0.03553   0.13968  -0.18630  -0.13826   0.06670
   2     7     6          0.09748  -0.07272  -0.02172   0.01504   0.06038
   3     7     6          0.07871  -0.09970  -0.06424   0.12040   0.04724
   1     8     7         -0.05503  -0.26678   0.08855  -0.01533  -0.05463
   2     8     7          0.07410  -0.00923  -0.07496  -0.00642  -0.11159
   3     8     7          0.01139  -0.03258  -0.19334  -0.01068   0.00679
   1     9     7         -0.16247  -0.15677   0.03181  -0.01881  -0.00861
   2     9     7         -0.19058   0.15935   0.13071  -0.00853  -0.01341
   3     9     7          0.00215  -0.06266   0.03980  -0.02570   0.02595
   1    10     6         -0.09457  -0.08642  -0.00366  -0.01718   0.05009
   2    10     6         -0.04221   0.09370   0.04431   0.07010   0.19644
   3    10     6          0.13159  -0.09289   0.10757  -0.04171   0.10371
   1    11     6         -0.10746   0.09636  -0.09387   0.03959   0.03898
   2    11     6          0.04976  -0.06849  -0.03993   0.02547   0.14166
   3    11     6          0.14750   0.02737   0.01777   0.00379   0.06349
   1    12    17          0.14901   0.06700   0.03627   0.00371  -0.01892
   2    12    17         -0.06006  -0.12056   0.00349  -0.03790   0.00533
   3    12    17          0.04270   0.22319  -0.00940   0.07627  -0.03613
   1    13     6         -0.09758   0.12504  -0.11238   0.03153  -0.01949
   2    13     6          0.09754  -0.01580  -0.06877  -0.01883  -0.19236
   3    13     6         -0.01288  -0.10688  -0.05086  -0.05752  -0.06619
   1    14     6          0.03569   0.12970  -0.02241  -0.00727   0.04614
   2    14     6         -0.02494   0.07727   0.12747   0.03451   0.09147
   3    14     6         -0.18824  -0.09339   0.00643  -0.02068   0.07984
   1    15     6          0.12690  -0.02612   0.02014  -0.06991   0.03333
   2    15     6          0.02987   0.09239  -0.02297   0.05494   0.01183
   3    15     6         -0.09520  -0.20554  -0.00831  -0.06383   0.04173
   1    16     6          0.09527  -0.05279  -0.00645  -0.06768  -0.00671
   2    16     6          0.03362   0.04906  -0.12524   0.01431  -0.17301
   3    16     6          0.09695  -0.17597   0.02122  -0.08478  -0.07439
   1    17     1         -0.11769   0.29043  -0.41921  -0.50656   0.12333
   2    17     1          0.07667  -0.09645  -0.05808   0.10719   0.02657
   3    17     1         -0.24337  -0.08589  -0.06740   0.19866  -0.11456
   1    18     1          0.03414  -0.31007   0.16580  -0.11450  -0.08751
   2    18     1         -0.13527   0.01569  -0.08790  -0.00229  -0.04030
   3    18     1         -0.17087   0.11465  -0.07039   0.08991  -0.05079
   1    19     1          0.05011  -0.03633   0.03100   0.19180   0.02403
   2    19     1         -0.11457  -0.03885  -0.13285   0.02543  -0.04174
   3    19     1          0.07542  -0.08466  -0.14420   0.06252   0.08148
   1    20     1         -0.06915   0.33112  -0.39339  -0.50363   0.15705
   2    20     1          0.11273  -0.09080   0.01423   0.05978   0.05304
   3    20     1          0.17318  -0.10785   0.08055   0.21383   0.04802
   1    21     1         -0.23316   0.02785  -0.16197   0.01006  -0.06837
   2    21     1          0.16382   0.01297  -0.12345  -0.07415  -0.51791
   3    21     1         -0.09076  -0.17017  -0.10596  -0.09250  -0.21622
   1    22     1          0.01900   0.13065   0.01210  -0.01422   0.05919
   2    22     1         -0.12229   0.10185   0.29854   0.01164   0.15486
   3    22     1         -0.36371   0.03832   0.01735   0.04515   0.10014
   1    23     1          0.21918  -0.09241   0.08699  -0.10502   0.01160
   2    23     1         -0.00513   0.09173  -0.02909   0.04586  -0.03894
   3    23     1         -0.15632  -0.17629  -0.04190  -0.05436   0.02275
   1    24     1          0.22750   0.01768   0.00307  -0.08467  -0.07589
   2    24     1         -0.02976  -0.01463  -0.23327  -0.05154  -0.51302
   3    24     1          0.19336  -0.13556  -0.00340  -0.12247  -0.24058
                          16        17        18        19        20
                           A         A         A         A         A
       Frequencies ---   500.1494  522.6911  569.1195  571.2780  640.6560
    Reduced masses ---     6.0890    4.3982    7.3492    5.2465    5.1448
   Force constants ---     0.8974    0.7080    1.4025    1.0088    1.2441
    IR Intensities ---     1.6554    4.1311    5.0290    6.1037    2.4058
 Coord Atom Element:
   1     1     6         -0.09817  -0.02190  -0.11557   0.23987  -0.01384
   2     1     6          0.01762  -0.05820  -0.01687  -0.03794  -0.04599
   3     1     6          0.04530  -0.03545   0.17294   0.05197  -0.01592
   1     2     6          0.25753   0.05798   0.05035  -0.05565   0.02550
   2     2     6         -0.00181  -0.05688  -0.04489  -0.02545  -0.08155
   3     2     6         -0.09485   0.01225  -0.02654   0.00709   0.03544
   1     3    17         -0.00529   0.00641   0.00284   0.02099   0.00279
   2     3    17          0.02085   0.03409   0.00984   0.00665   0.01691
   3     3    17          0.06397   0.02858   0.04660   0.03359   0.00866
   1     4     6         -0.00112  -0.00561   0.04804  -0.15408   0.00363
   2     4     6         -0.03158  -0.05223  -0.11762  -0.07985  -0.09744
   3     4     6         -0.10238   0.04071  -0.12155  -0.04864   0.07238
   1     5     6         -0.17965  -0.01653  -0.18098   0.15006  -0.00236
   2     5     6          0.00961  -0.00098   0.04530   0.00181   0.00521
   3     5     6         -0.10301   0.00197  -0.19469  -0.22013   0.00368
   1     6     6          0.15136   0.01210   0.10136  -0.17277  -0.01806
   2     6     6         -0.01462  -0.01249   0.04341   0.05614  -0.00815
   3     6     6         -0.13283  -0.08951  -0.12338  -0.04626  -0.12014
   1     7     6         -0.07965  -0.05409  -0.05449   0.10341  -0.04636
   2     7     6          0.08285  -0.04555   0.15971   0.12113  -0.04594
   3     7     6         -0.02350  -0.07298  -0.00014  -0.03628  -0.09137
   1     8     7         -0.18104  -0.00397   0.13845  -0.03742   0.06237
   2     8     7         -0.03818   0.13644  -0.10418  -0.05642   0.29026
   3     8     7          0.12082   0.05752   0.18839   0.15250   0.13259
   1     9     7         -0.10380  -0.03184   0.27214  -0.07646  -0.04511
   2     9     7          0.00510  -0.00402  -0.04770  -0.06847  -0.23604
   3     9     7          0.09133   0.00005   0.02425   0.19319  -0.10425
   1    10     6         -0.00223  -0.02723   0.10317  -0.03835   0.01794
   2    10     6         -0.03865  -0.11695  -0.03159   0.03158   0.09173
   3    10     6          0.00025  -0.05145  -0.03638  -0.06874   0.04493
   1    11     6          0.02850   0.05969  -0.00244   0.07302   0.01974
   2    11     6         -0.11610   0.27630   0.03926   0.00291   0.08248
   3    11     6         -0.05874   0.14062  -0.05160  -0.02788   0.03963
   1    12    17         -0.06694  -0.01604   0.05312  -0.02399   0.00033
   2    12    17          0.07146  -0.01350  -0.04789  -0.00538   0.00239
   3    12    17         -0.08860  -0.02799   0.07525   0.01687   0.00114
   1    13     6          0.08495   0.01627  -0.05096   0.10066  -0.01963
   2    13     6         -0.01788   0.01141   0.08682  -0.01348  -0.12291
   3    13     6          0.10728   0.02922  -0.12417  -0.00100  -0.06386
   1    14     6          0.14698   0.00250  -0.25125   0.05450   0.02985
   2    14     6         -0.06492  -0.16736   0.06302  -0.03182   0.15893
   3    14     6          0.09457  -0.06133  -0.08306   0.02591   0.07782
   1    15     6          0.11406   0.06802  -0.15688  -0.06330  -0.03092
   2    15     6         -0.11223   0.20050   0.06052   0.04706  -0.13360
   3    15     6          0.04921   0.11440  -0.00646  -0.05404  -0.06921
   1    16     6          0.11766  -0.00827  -0.11206  -0.04353   0.02165
   2    16     6          0.04439  -0.15164  -0.01746   0.06213   0.12878
   3    16     6          0.02745  -0.07290   0.04448  -0.12022   0.06164
   1    17     1         -0.16230  -0.05099   0.15180  -0.31392  -0.00086
   2    17     1         -0.01557  -0.04612  -0.12072  -0.05823  -0.09409
   3    17     1         -0.08921   0.07246  -0.08542   0.03030   0.12538
[...]
 0.00008535,0.00004858,-0.00014487,0.00003235,0.00001778,0.00029225,-0.
 00042386,-0.00166386,0.00037216,0.00017306,-0.05952364,0.02795457,-0.0
 3152383,-0.13300659,0.02497397,-0.02615589,0.06866857,-0.00466569,-0.0
 1500873,-0.00430195,0.00015917,0.00334229,-0.05208343,0.02226942,-0.02
 684351,-0.03807451,-0.02613339,0.07224555,-0.36177362,0.07961591,-0.04
 565834,0.75662583,0.00054186,-0.00014910,0.00099964,0.00010716,-0.0000
 1040,-0.00015574,-0.00001833,0.00006447,-0.00000751,-0.00001452,0.0000
 5883,-0.00005540,0.00001364,0.00009811,-0.00006259,0.00001691,-0.00002
 442,0.00006908,-0.00016257,-0.00016376,-0.00005324,-0.00372580,0.00339
 675,-0.00025946,0.02305801,-0.00307830,0.00617635,0.05294884,-0.125132
 28,0.08636588,-0.02934802,-0.00030755,0.02668651,0.00159612,0.00368604
 ,0.00217269,0.02245959,-0.01566018,0.01318313,-0.00211403,0.02316368,-
 0.02805410,0.04758818,-0.09687292,0.03557703,-0.08407607,0.26646620,-0
 .00084706,0.00144138,-0.00230672,0.00013968,-0.00016843,0.00025292,0.0
 0000953,-0.00006986,0.00000094,-0.00004429,-0.00007117,-0.00005782,0.0
 0003133,-0.00008323,0.00022525,0.00002739,0.00007491,0.00001910,0.0000
 6873,-0.00014436,0.00049850,0.00944215,-0.00211855,0.00302055,-0.02146
 363,0.00421271,0.00464160,-0.08373082,0.09804081,-0.23930233,0.0350993
 5,0.01665313,-0.04103279,0.00037344,0.00276359,-0.00088360,-0.02700531
 ,0.01311728,-0.02075365,0.02330796,-0.01841584,0.03735332,0.02031440,0
 .02273059,-0.12459559,-0.07344837,-0.20474499,0.59968786,0.00538166,0.
 00006811,-0.00236106,0.00395959,0.00478191,-0.00108525,-0.00267849,0.0
 0053525,0.00088946,-0.04095580,-0.02548168,-0.00209972,0.00393645,-0.0
 0670926,0.00156936,0.00633683,-0.00147412,-0.00249515,-0.00102300,0.00
 020076,-0.00003546,-0.00001732,-0.00005573,0.00008616,0.00018092,-0.00
 004335,0.00001841,0.00003284,0.00012600,0.00010885,-0.00005680,0.00003
 328,-0.00017533,0.00015799,-0.00006431,0.00008062,-0.00002506,-0.00003
 116,-0.00000576,-0.00001604,-0.00000294,0.00001962,0.00001786,-0.00000
 967,0.00001366,-0.00003246,-0.00000580,0.00000750,0.02942792,-0.000076
 05,0.00061618,0.00238767,-0.00191373,-0.00863324,-0.00345456,0.0002222
 2,0.00104225,-0.00065905,-0.02507737,-0.34566390,0.02972602,-0.0002639
 0,-0.01016160,0.00519053,-0.00141471,0.00022905,-0.00286163,0.00015764
 ,0.00086313,-0.00016928,0.00001350,-0.00024874,-0.00036049,-0.00017308
 ,0.00006907,0.00029171,0.00005962,-0.00004878,-0.00015505,0.00004270,-
 0.00005448,0.00015864,-0.00004118,0.00003098,-0.00009007,0.00001665,0.
 00001670,-0.00001016,0.00001441,-0.00000420,-0.00000355,0.00000868,0.0
 0000685,-0.00001851,0.00002085,0.00001319,-0.00003712,0.02782768,0.361
 95780,-0.00180028,0.00210447,-0.00452167,0.00200051,0.02693550,0.00088
 536,0.00098652,0.00031052,0.00081796,-0.00182834,0.02760260,-0.0584148
 4,-0.00173591,-0.02427256,0.00762262,-0.00265459,-0.00245348,-0.003272
 10,-0.00004942,-0.00027143,-0.00116292,-0.00027764,0.00104911,0.000811
 79,0.00017660,-0.00019511,-0.00069148,-0.00004075,0.00017087,0.0002225
 1,0.00000259,0.00010075,-0.00011282,-0.00001855,-0.00005651,0.00005145
 ,-0.00003002,-0.00001594,-0.00000723,-0.00002137,0.00000148,0.00000858
 ,-0.00000557,-0.00000232,0.00001586,-0.00003007,-0.00001357,0.00002750
 ,0.00409352,-0.03007464,0.05694397,-0.00062268,-0.00023760,0.00039928,
 0.00640911,-0.00136861,-0.00233158,0.00013259,0.00007621,-0.00023331,0
 .00245262,0.00368473,-0.00593425,-0.04624392,0.01824153,-0.04731505,0.
 00392711,-0.00169070,0.00251025,0.00623233,-0.00117568,-0.00122173,-0.
 00076331,0.00009053,-0.00006995,-0.00001925,0.00005469,-0.00014603,0.0
 0003423,0.00002149,0.00001039,-0.00002032,0.00003913,-0.00007441,0.000
 02667,-0.00001419,0.00005097,0.00000622,-0.00000676,0.00000751,-0.0000
 0581,0.00000320,-0.00000531,-0.00000733,-0.00000406,0.00000985,-0.0000
 1106,-0.00000500,0.00001360,-0.00407612,0.00053809,0.00117993,0.036202
 71,-0.00031885,-0.00095669,-0.00087237,-0.00137449,-0.00104687,-0.0024
 3721,-0.00025888,-0.00003114,-0.00094135,-0.00339844,0.01089332,-0.017
 83330,0.01821188,-0.11086021,0.10991894,0.00564685,-0.00606269,0.02819
 664,-0.00124800,-0.00544057,-0.00012646,0.00021284,0.00023530,0.000061
 69,-0.00010338,-0.00003989,0.00003386,0.00001050,-0.00001170,-0.000040
 44,-0.00000271,-0.00002528,0.00003310,-0.00000097,0.00003292,0.0000049
 5,0.00001001,-0.00000220,0.00000569,0.00000627,-0.00000159,-0.00000520
 ,0.00000316,0.00000564,-0.00000410,0.00000950,0.00001027,-0.00001364,0
 .00056004,0.00059328,0.00025660,-0.01862888,0.11219758,0.00027246,-0.0
 0076915,0.00015164,-0.00218275,-0.00292223,-0.00085734,-0.00030771,-0.
 00001244,-0.00105254,-0.00309409,0.01304512,-0.01540350,-0.04722767,0.
 10976218,-0.28763886,-0.00065754,-0.00235923,0.00156476,-0.00108149,0.
 00049427,0.00193159,0.00002972,0.00003313,0.00020934,0.00013879,-0.000
 01362,-0.00004539,-0.00002128,-0.00003248,0.00003549,0.00000506,0.0000
 0791,-0.00002303,-0.00000049,0.00001739,-0.00001363,-0.00001468,0.0000
 1025,-0.00001221,-0.00000668,-0.00000317,0.00000676,-0.00000133,-0.000
 00076,0.00000664,-0.00000672,-0.00000603,0.00002202,0.00115364,-0.0000
 8941,0.00056216,0.05204323,-0.11714469,0.30031465,0.00665602,0.0000402
 4,-0.00206332,-0.00071589,-0.00005288,0.00038997,-0.00064065,0.0000300
 7,0.00013933,0.00652777,-0.00096602,-0.00123136,0.00348951,-0.00018104
 ,-0.00202615,-0.05721244,-0.04286873,-0.05930490,0.00294317,-0.0032166
 3,-0.00340499,-0.00001416,0.00003393,0.00011192,0.00016910,-0.00002662
 ,0.00002670,0.00000142,-0.00012467,-0.00001245,-0.00001590,0.00009069,
 -0.00010101,0.00012782,-0.00004922,0.00006313,-0.00003240,0.00003237,0
 .00000356,-0.00002036,-0.00001243,0.00002764,0.00002301,-0.00000812,0.
 00001117,-0.00004121,0.00000205,0.00001120,0.00005880,-0.00002214,-0.0
 0008883,-0.00389821,0.00044818,0.00104080,0.04668717,-0.00020082,-0.00
 004763,0.00361309,0.00026420,-0.00063623,0.00108775,0.00004011,0.00009
 582,-0.00016472,-0.00085423,-0.00520991,0.00178262,-0.00743347,-0.0102
 2808,-0.02544553,-0.04271497,-0.15473836,-0.12942480,0.00363026,0.0107
 1604,0.01223868,0.00043123,0.00060023,-0.00011020,-0.00012690,-0.00030
 136,0.00015114,0.00000691,0.00012611,0.00004556,-0.00000690,-0.0000052
 6,0.00006867,-0.00000593,-0.00000872,-0.00003679,0.00000694,-0.0000148
 7,-0.00000842,0.00000892,0.00000178,-0.00000721,-0.00000476,0.00000603
 ,-0.00000314,0.00001459,-0.00000688,-0.00000250,-0.00030970,-0.0005667
 8,-0.00113955,0.00054568,0.00090335,0.00006633,0.04628068,0.15878624,-
 0.00179111,0.00293355,-0.00345537,0.00032220,0.00116235,-0.00001043,0.
 00015265,-0.00009974,-0.00000797,-0.00109234,0.00132827,0.00164818,0.0
 0112661,0.00500078,0.00667414,-0.05929761,-0.12920332,-0.23453229,-0.0
 0636237,-0.01790542,-0.01465385,-0.00069113,-0.00101884,-0.00010931,0.
 00043709,0.00049120,-0.00039570,-0.00014489,-0.00021682,0.00009983,-0.
 00000862,0.00008363,-0.00019870,-0.00000424,-0.00003772,0.00009537,-0.
 00003551,0.00002812,0.00000893,-0.00003013,-0.00000060,0.00001124,-0.0
 0001524,-0.00001387,0.00002257,-0.00003562,-0.00001735,0.00006650,0.00
 004837,0.00022430,0.00019158,0.00099591,-0.00035787,0.00027566,0.06526
 151,0.13772961,0.24360934,0.00457779,-0.00812426,0.00224502,0.00570547
 ,-0.00076605,-0.00240423,-0.00016874,-0.00032548,-0.00018403,-0.000942
 42,0.00015711,-0.00013348,0.00628591,-0.00021406,-0.00225644,0.0041193
 2,0.00539028,-0.00083091,-0.04050112,-0.02771143,-0.00109975,-0.004649
 66,-0.00023206,0.00016944,-0.00009155,0.00017545,-0.00060415,0.0000995
 2,0.00027309,-0.00016980,-0.00003379,0.00002255,-0.00010195,0.00044369
 ,0.00014377,0.00007241,0.00000598,0.00001875,-0.00002456,-0.00001462,0
 .00000145,0.00001025,0.00002089,-0.00000884,0.00000274,-0.00005351,0.0
 0004885,-0.00005152,-0.00060526,0.00005677,0.00014554,0.00024618,0.000
 21458,-0.00008013,-0.00408544,0.00042812,0.00116954,0.02963930,0.00021
 797,-0.01171061,0.00370859,-0.00165669,-0.00006913,-0.00210604,-0.0000
 3564,-0.00061275,-0.00011067,0.00022578,0.00079778,-0.00045167,-0.0002
 5763,0.00116744,0.00254066,-0.00131141,-0.00665762,-0.00251430,-0.0284
 1363,-0.34085140,0.03608685,0.00086809,-0.00018693,0.00253115,-0.00053
 964,0.00047980,-0.00098562,0.00003259,-0.00020751,0.00011548,-0.000151
 11,-0.00001561,-0.00004301,0.00006682,0.00005208,0.00002906,-0.0000043
 6,0.00000454,0.00002055,-0.00000130,-0.00000185,-0.00000001,0.00001382
 ,0.00000306,0.00000333,-0.00001502,0.00001875,-0.00001266,0.00005283,-
 0.00005957,-0.00002938,-0.00016152,-0.00039103,-0.00008012,0.00057937,
 0.00052971,-0.00010420,0.03048843,0.35773012,-0.00249404,-0.02410293,0
 .00544896,-0.00246744,-0.00150052,-0.00252553,-0.00024830,-0.00139870,
 -0.00038997,-0.00004843,-0.00036633,-0.00125322,-0.00243085,0.00194242
 ,-0.00425687,0.00268124,0.02746254,0.00293429,-0.00173918,0.03622416,-
 0.06171986,0.00217714,-0.00060291,0.00195468,-0.00088901,0.00046833,0.
 00012294,-0.00009326,-0.00031305,-0.00014481,-0.00000415,-0.00017451,0
 .00029948,-0.00011467,0.00004302,-0.00017401,0.00003636,0.00000686,0.0
 0001393,0.00003737,-0.00000506,-0.00001351,0.00001628,0.00002426,-0.00
 003769,0.00004017,0.00003184,-0.00005717,0.00015913,0.00001511,0.00001
 240,0.00010815,0.00126892,-0.00003520,0.00114208,-0.00043275,0.0006435
 2,0.00412316,-0.03860101,0.05920661,0.00029705,-0.00007098,0.00018804,
 0.00001229,0.00002776,-0.00010217,0.00002450,0.00001197,0.00000701,-0.
 00000134,0.00003493,-0.00000570,0.00000179,0.00003580,-0.00006284,-0.0
 0001238,-0.00003455,0.00000116,0.00000686,0.00002287,-0.00013881,-0.00
 025102,0.00011690,-0.00024513,0.00033545,-0.00073041,0.00136671,-0.004
 76606,0.00256389,-0.00115542,-0.01381132,-0.00790242,0.02290027,0.0000
 7134,-0.00072894,0.00033627,-0.15743852,-0.04241880,0.13357627,0.01114
 729,0.00433751,-0.01146727,-0.00002921,0.00225094,-0.00193944,-0.00045
 997,0.00038261,-0.00094391,-0.00001022,0.00000995,-0.00000823,-0.00000
 434,0.00000267,-0.00000107,-0.00001090,0.00000247,-0.00001263,0.000001
 69,-0.00000573,0.00001631,0.16405848,-0.00002713,0.00022676,0.00013583
 ,0.00008422,0.00000778,0.00003952,-0.00002446,-0.00002878,-0.00002965,
 -0.00000814,0.00000691,-0.00005151,-0.00000379,0.00000366,0.00002243,0
 .00001633,-0.00000963,0.00002151,-0.00000743,-0.00002980,0.00003666,-0
 .00008098,-0.00020685,-0.00012749,0.00006910,0.00011963,-0.00034696,0.
 00201597,0.00423894,0.00204673,0.00577214,0.00431509,-0.00414261,0.000
 62659,-0.00215308,-0.00153406,-0.04382396,-0.06176024,0.06624480,-0.00
 910463,0.00118488,0.01015338,0.00244013,0.00408425,0.00432673,0.000512
 54,-0.00080115,-0.00034068,0.00000454,-0.00000388,-0.00000016,0.000001
 81,0.00000101,0.00000106,-0.00000182,-0.00000063,0.00000018,-0.0000164
 5,-0.00000308,0.00000636,0.04276992,0.05426350,0.00005017,0.00017624,-
 0.00010074,-0.00004695,0.00003508,0.00002187,-0.00000133,-0.00002284,-
 0.00001958,-0.00000089,-0.00000585,-0.00000030,0.00002075,0.00000386,-
 0.00001000,0.00000434,-0.00001564,0.00002720,-0.00006905,-0.00000965,0
 .00001041,0.00020220,-0.00020301,0.00008903,-0.00035071,-0.00003065,0.
 00015065,0.00002378,0.00185931,0.00186043,-0.00497161,0.00126980,0.002
 80383,-0.00242554,-0.00099759,0.00020485,0.13637095,0.06568236,-0.2250
 6657,0.01585444,0.00482619,-0.01164578,-0.00226261,0.00441138,-0.00138
 622,-0.00117828,-0.00029343,0.00019300,-0.00000018,0.00000057,0.000002
 20,-0.00000356,0.00000131,-0.00000051,-0.00000371,-0.00000243,0.000001
 28,-0.00000008,-0.00000395,-0.00000242,-0.14157737,-0.07484161,0.23377
 289,0.00001725,0.00000909,0.00002942,-0.00001515,-0.00001729,-0.000038
 56,0.00000212,0.00001102,0.00000602,-0.00000229,-0.00000335,0.00001448
 ,-0.00000025,-0.00000235,-0.00000429,-0.00000606,0.00000164,0.00001391
 ,-0.00000995,0.00002297,-0.00001726,-0.00003510,0.00007091,-0.00008772
 ,-0.00015351,-0.00017834,-0.00009061,0.00078182,-0.00028310,0.00010740
 ,0.00125106,0.00154153,-0.00075989,-0.00032103,0.00014967,-0.00026959,
 -0.00615719,0.00044851,0.00339124,-0.33631306,0.06013215,-0.00581547,-
 0.01090176,0.00536909,-0.00453751,-0.00038198,-0.00035945,0.00377243,0
 .00000219,0.00000096,-0.00000206,0.00000026,0.00000144,-0.00000249,-0.
 00000046,-0.00000031,-0.00000501,0.00000595,0.00000107,0.00000465,0.00
 043769,-0.00074235,-0.00036336,0.35180152,0.00000993,0.00008500,0.0000
 6000,0.00000511,0.00002472,0.00002296,-0.00000515,-0.00001573,-0.00001
 759,0.00001602,0.00000440,-0.00000062,-0.00000294,-0.00001533,-0.00001
 461,-0.00001193,0.00000435,-0.00001056,0.00000483,-0.00001254,0.000001
 59,0.00001117,0.00010866,0.00002714,-0.00027708,-0.00101059,-0.0005707
 6,-0.00022692,-0.00052308,0.00037277,0.00162754,0.00479930,0.00441042,
 0.00041967,-0.00042817,0.00024467,0.01428124,0.00216351,-0.00027241,0.
 05989298,-0.05735321,0.00868443,-0.00816798,0.00680623,0.00017442,-0.0
 0018240,0.00543752,0.00389525,0.00000175,-0.00000049,-0.00000021,-0.00
 000008,-0.00000031,0.00000038,-0.00000340,0.00000062,-0.00000066,-0.00
 000459,-0.00000190,0.00000125,-0.00083599,-0.00320474,-0.00194033,-0.0
 6568628,0.04620547,0.00002189,0.00007225,-0.00003766,0.00000455,-0.000
 01059,0.00000932,-0.00000387,-0.00000625,-0.00000375,-0.00000154,-0.00
 001404,0.00000070,-0.00000216,-0.00001216,0.00001136,-0.00000569,0.000
 01622,0.00000751,0.00000031,-0.00000458,0.00002263,0.00001809,0.000021
 73,0.00008477,-0.00000736,-0.00059994,-0.00012994,0.00006185,0.0003700
 6,-0.00116553,-0.00098323,0.00445970,-0.00137816,-0.00079982,0.0003507
 5,-0.00063240,-0.02466131,0.00514219,0.00407146,-0.00542375,0.00861462
 ,-0.05683919,0.02305043,-0.00514570,0.00669589,0.00347146,0.00394229,-
 0.00211614,0.00000382,-0.00000210,0.00000127,0.00000059,-0.00000008,-0
 .00000039,0.00000044,-0.00000114,0.00000082,0.00000096,0.00000010,-0.0
 0000264,-0.00018297,-0.00197511,-0.00024101,0.00533080,-0.01306841,0.0
 5153330,0.00002508,-0.00009550,0.00020436,-0.00000537,-0.00000443,-0.0
 0006226,0.00000498,0.00002105,0.00001376,0.00000138,0.00000714,0.00001
 669,-0.00000466,0.00000803,-0.00002726,-0.00000433,-0.00000640,0.00000
 689,0.00000416,0.00002207,-0.00005440,-0.00053667,0.00011291,-0.000060
 87,-0.00064214,0.00060722,-0.00098360,-0.00359635,0.00138900,0.0016124
 2,-0.00125597,-0.00018969,0.00073805,0.00016443,-0.00013562,-0.0001321
 4,-0.00151422,-0.00008275,0.00353536,0.01124044,-0.00942377,0.01630097
 ,-0.09729542,0.05240376,-0.08381367,-0.00515112,0.01438344,-0.02589527
 ,-0.00000024,0.00000391,-0.00000440,-0.00000074,0.00000158,-0.00000211
 ,-0.00000150,0.00000080,-0.00000843,0.00000438,0.00000114,0.00000716,0
 .00040209,-0.00040041,0.00068949,0.00052927,-0.00048228,-0.00082733,0.
 09696961,-0.00001465,0.00000255,-0.00009115,0.00000410,0.00003830,0.00
 006366,-0.00001070,-0.00002305,-0.00002497,0.00000481,-0.00001077,-0.0
 0000198,-0.00000202,-0.00001790,0.00000118,-0.00000395,0.00001307,-0.0
 0001747,0.00001816,-0.00000698,0.00002751,0.00011132,-0.00008286,0.000
 01381,0.00002602,-0.00010538,0.00019478,0.00179783,0.00610288,0.002041
 84,-0.00017055,-0.00014178,-0.00044761,-0.00011215,-0.00068691,-0.0003
 2890,-0.00036748,0.00551713,0.00316773,0.00428432,0.00075498,0.0045716
 9,0.05251091,-0.10641390,0.11710597,0.00043855,0.00109861,0.00529516,0
 .00000088,-0.00000203,0.00000407,-0.00000025,-0.00000164,0.00000073,-0
 .00000084,0.00000048,0.00000231,-0.00000619,-0.00000241,-0.00000575,0.
 00019710,-0.00003937,0.00021175,-0.00069109,-0.00303070,-0.00178971,-0
 .05719119,0.10042837,0.00001024,-0.00003827,0.00005665,-0.00001244,-0.
 00000018,-0.00002674,-0.00000082,0.00000564,-0.00000090,0.00000045,0.0
 0000105,0.00001500,-0.00000205,-0.00000515,-0.00000898,-0.00000670,-0.
 00000005,0.00000254,0.00000186,0.00002892,-0.00001983,-0.00002660,-0.0
 0000542,-0.00005725,0.00016280,-0.00003891,0.00000342,0.00081376,0.002
 16803,0.00269865,0.00076168,-0.00043611,0.00018080,-0.00018298,-0.0003
 2013,-0.00014555,0.00406667,0.00307656,-0.00089782,-0.01173589,0.00995
 276,-0.01186517,-0.08399321,0.11723456,-0.24508294,0.00261166,-0.00024
 424,0.00321668,0.00000110,0.00000117,-0.00000186,0.00000061,0.00000077
 ,-0.00000212,-0.00000093,0.00000082,-0.00000557,0.00000321,0.00000062,
 0.00000328,-0.00052553,0.00045361,-0.00060345,-0.00040291,-0.00187372,
 -0.00005924,0.08888962,-0.12805393,0.25302581,-0.00029859,0.00027989,-
 0.00014005,0.00006557,0.00003254,0.00017245,-0.00004274,-0.00006332,-0
 .00004732,0.00001090,-0.00002878,-0.00004572,-0.00000186,-0.00003136,0
 .00006502,0.00002356,0.00004676,-0.00002329,0.00003581,-0.00008861,0.0
 0017936,0.00072009,-0.00024664,0.00029290,-0.00335296,0.00132286,-0.00
 406611,0.00888663,0.00399098,-0.00912040,-0.00047352,0.00104566,-0.000
 04804,0.00013545,0.00047646,-0.00093676,-0.00035222,0.00051824,-0.0013
 3895,-0.00458278,0.00249756,-0.00038463,-0.00986605,-0.00748477,0.0216
 0754,-0.16822319,-0.04331770,0.14081150,0.00000378,-0.00001144,0.00001
 081,0.00000307,-0.00000490,0.00000454,0.00000575,-0.00000293,0.0000210
 2,-0.00000995,0.00000576,-0.00001988,-0.00000124,-0.00007173,0.0000391
 2,-0.00053135,-0.00038321,0.00093383,0.00066290,-0.00082296,-0.0004336
 0,0.17718295,0.00009156,0.00070848,0.00029423,-0.00005454,0.00010158,-
 0.00017023,-0.00001665,-0.00001532,-0.00004582,0.00001589,0.00004154,0
 .00003715,-0.00000622,-0.00000936,-0.00004001,-0.00000896,0.00001488,-
 0.00001506,0.00004338,-0.00003683,0.00004929,0.00004154,0.00037289,-0.
 00050341,-0.00227415,-0.00503609,-0.00153466,-0.00796052,0.00243695,0.
 01139168,0.00208999,0.00271197,0.00307309,-0.00021606,-0.00004454,0.00
 076266,0.00034166,-0.00097396,-0.00025387,0.00259378,0.00541580,0.0023
 8535,0.00526226,0.00703829,-0.00481906,-0.04147714,-0.06130548,0.05799
 822,-0.00000533,0.00000922,-0.00001111,-0.00000374,-0.00000084,-0.0000
 0542,-0.00000303,-0.00000168,-0.00000789,-0.00000979,-0.00001187,0.000
 00845,-0.00003945,-0.00021117,-0.00011086,0.00020386,-0.00004302,-0.00
 036009,-0.00095000,-0.00339069,-0.00190840,0.04234167,0.05222927,0.000
 30905,0.00028785,0.00020258,0.00001488,0.00005503,0.00007751,-0.000018
 85,-0.00007015,-0.00003658,-0.00000883,-0.00003542,-0.00000956,0.00000
 037,-0.00002375,0.00003720,0.00000027,0.00005839,0.00001265,0.00001953
 ,-0.00011164,0.00017057,-0.00043405,-0.00027963,0.00099661,0.00315606,
 -0.00315355,-0.00141936,0.01555554,0.00654864,-0.01328459,-0.00236418,
 0.00347142,-0.00156260,0.00051566,0.00047457,-0.00088338,-0.00088112,-
 0.00037750,0.00009009,-0.00061606,0.00244580,0.00224820,-0.00475395,0.
 00034079,0.00694559,0.13746270,0.05876320,-0.21811993,0.00000468,-0.00
 001010,0.00000769,0.00000489,-0.00000577,0.00000401,0.00000818,-0.0000
 0508,0.00002025,-0.00000124,0.00000624,-0.00002718,-0.00002353,-0.0000
 9899,-0.00006103,-0.00027362,-0.00012538,0.00016702,-0.00014304,-0.001
 94070,-0.00042543,-0.14753335,-0.06621425,0.22484967\\-0.00000567,-0.0
 0001067,-0.00000070,0.00000145,0.00000464,-0.00000227,-0.00000537,-0.0
 0000379,0.00000028,-0.00000413,-0.00000413,-0.00000125,0.00000812,0.00
 001344,0.00000815,-0.00000273,-0.00000484,-0.00000532,0.00000445,0.000
 00570,0.00000652,0.00000020,-0.00000483,-0.00001288,0.00000741,-0.0000
 0364,-0.00000246,-0.00000166,-0.00000107,0.00000575,-0.00000352,0.0000
 0342,0.00001216,-0.00000434,0.00000306,-0.00000999,0.00001108,-0.00000
 410,0.00001003,-0.00000420,0.00000121,-0.00000463,-0.00000159,-0.00000
 051,-0.00000229,-0.00000767,0.00000272,-0.00000462,0.,0.00000798,0.000
 00107,0.00000048,0.00000319,0.00000194,0.00000423,0.00000272,0.0000030
 8,0.00000124,-0.00000411,-0.00000135,-0.00000004,-0.00000376,0.0000005
 8,0.00000354,-0.00000383,-0.00000136,-0.00000082,0.00000131,-0.0000011
 7,-0.00000045,-0.00000012,0.00000072\\\@
 The archive entry for this job was punched.


 FRICTION IS A DRAG,
 AND ENTROPY AIN'T WHAT IT USED TO BE.
 Job cpu time:       0 days  0 hours 25 minutes 17.2 seconds.
 Elapsed time:       0 days  0 hours  2 minutes 16.5 seconds.
 File lengths (MBytes):  RWF=    245 Int=      0 D2E=      0 Chk=      6 Scr=      1
 Normal termination of Gaussian 16 at Fri Mar  6 17:34:09 2026.
