 Entering Gaussian System, Link 0=g16
 Initial command:
 /prod/precompiled/gaussian/16c2/g16/l1.exe "/scratch/ucsscms/svela/2076949/Gau-42973.inp" -scrdir="/scratch/ucsscms/svela/2076949/"
 Entering Link 1 = /prod/precompiled/gaussian/16c2/g16/l1.exe PID=     42974.
  
 Copyright (c) 1988-2021, Gaussian, Inc.  All Rights Reserved.
  
 This is part of the Gaussian(R) 16 program.  It is based on
 the Gaussian(R) 09 system (copyright 2009, Gaussian, Inc.),
 the Gaussian(R) 03 system (copyright 2003, Gaussian, Inc.),
 the Gaussian(R) 98 system (copyright 1998, Gaussian, Inc.),
 the Gaussian(R) 94 system (copyright 1995, Gaussian, Inc.),
 the Gaussian 92(TM) system (copyright 1992, Gaussian, Inc.),
 the Gaussian 90(TM) system (copyright 1990, Gaussian, Inc.),
 the Gaussian 88(TM) system (copyright 1988, Gaussian, Inc.),
 the Gaussian 86(TM) system (copyright 1986, Carnegie Mellon
 University), and the Gaussian 82(TM) system (copyright 1983,
 Carnegie Mellon University). Gaussian is a federally registered
 trademark of Gaussian, Inc.
  
 This software contains proprietary and confidential information,
 including trade secrets, belonging to Gaussian, Inc.
  
 This software is provided under written license and may be
 used, copied, transmitted, or stored only in accord with that
 written license.
  
 The following legend is applicable only to US Government
 contracts under FAR:
  
                    RESTRICTED RIGHTS LEGEND
  
 Use, reproduction and disclosure by the US Government is
 subject to restrictions as set forth in subparagraphs (a)
 and (c) of the Commercial Computer Software - Restricted
 Rights clause in FAR 52.227-19.
  
 Gaussian, Inc.
 340 Quinnipiac St., Bldg. 40, Wallingford CT 06492
  
  
 ---------------------------------------------------------------
 Warning -- This program may not be used in any manner that
 competes with the business of Gaussian, Inc. or will provide
 assistance to any competitor of Gaussian, Inc.  The licensee
 of this program is prohibited from giving any competitor of
 Gaussian, Inc. access to this program.  By using this program,
 the user acknowledges that Gaussian, Inc. is engaged in the
 business of creating and licensing software in the field of
 computational chemistry and represents and warrants to the
 licensee that it is not a competitor of Gaussian, Inc. and that
 it will not use this program in any manner prohibited above.
 ---------------------------------------------------------------
  

 Cite this work as:
 Gaussian 16, Revision C.02,
 M. J. Frisch, G. W. Trucks, H. B. Schlegel, G. E. Scuseria, 
 M. A. Robb, J. R. Cheeseman, G. Scalmani, V. Barone, 
 G. A. Petersson, H. Nakatsuji, X. Li, M. Caricato, A. V. Marenich, 
 J. Bloino, B. G. Janesko, R. Gomperts, B. Mennucci, H. P. Hratchian, 
 J. V. Ortiz, A. F. Izmaylov, J. L. Sonnenberg, D. Williams-Young, 
 F. Ding, F. Lipparini, F. Egidi, J. Goings, B. Peng, A. Petrone, 
 T. Henderson, D. Ranasinghe, V. G. Zakrzewski, J. Gao, N. Rega, 
 G. Zheng, W. Liang, M. Hada, M. Ehara, K. Toyota, R. Fukuda, 
 J. Hasegawa, M. Ishida, T. Nakajima, Y. Honda, O. Kitao, H. Nakai, 
 T. Vreven, K. Throssell, J. A. Montgomery, Jr., J. E. Peralta, 
 F. Ogliaro, M. J. Bearpark, J. J. Heyd, E. N. Brothers, K. N. Kudin, 
 V. N. Staroverov, T. A. Keith, R. Kobayashi, J. Normand, 
 K. Raghavachari, A. P. Rendell, J. C. Burant, S. S. Iyengar, 
 J. Tomasi, M. Cossi, J. M. Millam, M. Klene, C. Adamo, R. Cammi, 
 J. W. Ochterski, R. L. Martin, K. Morokuma, O. Farkas, 
 J. B. Foresman, and D. J. Fox, Gaussian, Inc., Wallingford CT, 2019.
 
 ******************************************
 Gaussian 16:  ES64L-G16RevC.02  7-Dec-2021
                 6-Mar-2026 
 ******************************************
 %chk=test_tsinv_r_b_freq_r1.chk
 ----------------------------------------------------------------------
 #p nosymm scf=(maxconventionalcycles=200,xqc) wB97XD def2SVP freq(hpmo
 des)
 ----------------------------------------------------------------------
 1/10=4,30=1,38=1/1,3;
 2/12=2,15=1,17=6,18=5,40=1/2;
 3/5=43,7=101,11=2,25=1,30=1,71=2,74=-58,140=1/1,2,3;
 4//1;
 5/5=2,8=3,13=1,38=5,85=200,98=1/2,8;
 8/6=4,10=90,11=11/1;
 11/6=1,8=1,9=11,15=111,16=1,31=1/1,2,10;
 10/6=1,31=1/2;
 6/7=2,8=2,9=2,10=2,28=1/1;
 7/8=11,10=1,25=1,30=1/1,2,3,16;
 1/10=4,30=1/3;
 99//99;
 Leave Link    1 at Fri Mar  6 17:31:51 2026, MaxMem=           0 cpu:               0.0 elap:               0.1
 (Enter /prod/precompiled/gaussian/16c2/g16/l101.exe)
 ----------
 Title Card
 ----------
 Symbolic Z-matrix:
 Charge =  0 Multiplicity = 1
 C                    -1.77203   1.44798   0.01061 
 C                    -1.30093   2.67427   0.50715 
 Cl                    0.21656   2.81884   1.34043 
 C                    -2.08653   3.81974   0.38165 
 C                    -3.33028   3.75385  -0.2412 
 C                    -3.81332   2.53765  -0.72316 
 C                    -3.03976   1.39363  -0.57695 
 N                    -1.11442   0.16705   0.05397 
 N                     0.09618   0.12968   0.11761 
 C                     1.42064   0.08163   0.11391 
 C                     2.13929   0.27179  -1.09459 
 Cl                    1.23238   0.5864   -2.55038 
 C                     3.52496   0.21116  -1.11439 
 C                     4.24398  -0.00798   0.06001 
 C                     3.54767  -0.17188   1.25819 
 C                     2.16088  -0.13868   1.30072 
 H                    -1.71021   4.76267   0.78083 
 H                    -3.92915   4.66165  -0.33733 
 H                    -4.7925    2.48093  -1.20128 
 H                    -3.38439   0.41743  -0.92368 
 H                     4.03622   0.35236  -2.06827 
 H                     5.3335   -0.0464    0.03605 
 H                     4.09459  -0.33875   2.18883 
 H                     1.6206   -0.27409   2.23773 
 
 ITRead=  0  0  0  0  0  0  0  0  0  0  0  0  0  0  0  0  0  0  0  0
 ITRead=  0  0  0  0
 MicOpt= -1 -1 -1 -1 -1 -1 -1 -1 -1 -1 -1 -1 -1 -1 -1 -1 -1 -1 -1 -1
 MicOpt= -1 -1 -1 -1
 NAtoms=     24 NQM=       24 NQMF=       0 NMMI=      0 NMMIF=      0
                NMic=       0 NMicF=      0.
                    Isotopes and Nuclear Properties:
 (Nuclear quadrupole moments (NQMom) in fm**2, nuclear magnetic moments (NMagM)
  in nuclear magnetons)

  Atom         1           2           3           4           5           6           7           8           9          10
 IAtWgt=          12          12          35          12          12          12          12          14          14          12
 AtmWgt=  12.0000000  12.0000000  34.9688527  12.0000000  12.0000000  12.0000000  12.0000000  14.0030740  14.0030740  12.0000000
 NucSpn=           0           0           3           0           0           0           0           2           2           0
 AtZEff=  -0.0000000  -0.0000000  -0.0000000  -0.0000000  -0.0000000  -0.0000000  -0.0000000  -0.0000000  -0.0000000  -0.0000000
 NQMom=    0.0000000   0.0000000  -8.1650000   0.0000000   0.0000000   0.0000000   0.0000000   2.0440000   2.0440000   0.0000000
 NMagM=    0.0000000   0.0000000   0.8218740   0.0000000   0.0000000   0.0000000   0.0000000   0.4037610   0.4037610   0.0000000
 AtZNuc=   6.0000000   6.0000000  17.0000000   6.0000000   6.0000000   6.0000000   6.0000000   7.0000000   7.0000000   6.0000000

  Atom        11          12          13          14          15          16          17          18          19          20
 IAtWgt=          12          35          12          12          12          12           1           1           1           1
 AtmWgt=  12.0000000  34.9688527  12.0000000  12.0000000  12.0000000  12.0000000   1.0078250   1.0078250   1.0078250   1.0078250
 NucSpn=           0           3           0           0           0           0           1           1           1           1
 AtZEff=  -0.0000000  -0.0000000  -0.0000000  -0.0000000  -0.0000000  -0.0000000  -0.0000000  -0.0000000  -0.0000000  -0.0000000
 NQMom=    0.0000000  -8.1650000   0.0000000   0.0000000   0.0000000   0.0000000   0.0000000   0.0000000   0.0000000   0.0000000
 NMagM=    0.0000000   0.8218740   0.0000000   0.0000000   0.0000000   0.0000000   2.7928460   2.7928460   2.7928460   2.7928460
 AtZNuc=   6.0000000  17.0000000   6.0000000   6.0000000   6.0000000   6.0000000   1.0000000   1.0000000   1.0000000   1.0000000

  Atom        21          22          23          24
 IAtWgt=           1           1           1           1
 AtmWgt=   1.0078250   1.0078250   1.0078250   1.0078250
 NucSpn=           1           1           1           1
 AtZEff=  -0.0000000  -0.0000000  -0.0000000  -0.0000000
 NQMom=    0.0000000   0.0000000   0.0000000   0.0000000
 NMagM=    2.7928460   2.7928460   2.7928460   2.7928460
 AtZNuc=   1.0000000   1.0000000   1.0000000   1.0000000
 Leave Link  101 at Fri Mar  6 17:31:52 2026, MaxMem=   104857600 cpu:               0.0 elap:               0.1
 (Enter /prod/precompiled/gaussian/16c2/g16/l103.exe)

 GradGradGradGradGradGradGradGradGradGradGradGradGradGradGradGradGradGrad
 Berny optimization.
 Initialization pass.
 Trust Radius=3.00D-01 FncErr=1.00D-07 GrdErr=1.00D-07 EigMax=2.50D+02 EigMin=1.00D-04
 Number of steps in this run=      2 maximum allowed number of steps=      2.
 GradGradGradGradGradGradGradGradGradGradGradGradGradGradGradGradGradGrad

 Leave Link  103 at Fri Mar  6 17:31:52 2026, MaxMem=   104857600 cpu:               0.0 elap:               0.0
 (Enter /prod/precompiled/gaussian/16c2/g16/l202.exe)
                          Input orientation:                          
 ---------------------------------------------------------------------
 Center     Atomic      Atomic             Coordinates (Angstroms)
 Number     Number       Type             X           Y           Z
 ---------------------------------------------------------------------
      1          6           0       -1.772031    1.447983    0.010607
      2          6           0       -1.300931    2.674267    0.507154
      3         17           0        0.216560    2.818843    1.340432
      4          6           0       -2.086528    3.819738    0.381647
      5          6           0       -3.330279    3.753851   -0.241200
      6          6           0       -3.813316    2.537653   -0.723157
      7          6           0       -3.039760    1.393633   -0.576953
      8          7           0       -1.114424    0.167049    0.053967
      9          7           0        0.096184    0.129684    0.117606
     10          6           0        1.420635    0.081627    0.113912
     11          6           0        2.139290    0.271791   -1.094590
     12         17           0        1.232383    0.586398   -2.550378
     13          6           0        3.524957    0.211157   -1.114394
     14          6           0        4.243978   -0.007984    0.060014
     15          6           0        3.547668   -0.171879    1.258192
     16          6           0        2.160878   -0.138682    1.300724
     17          1           0       -1.710210    4.762674    0.780825
     18          1           0       -3.929145    4.661653   -0.337332
     19          1           0       -4.792497    2.480925   -1.201277
     20          1           0       -3.384390    0.417431   -0.923677
     21          1           0        4.036216    0.352363   -2.068271
     22          1           0        5.333505   -0.046399    0.036046
     23          1           0        4.094590   -0.338751    2.188827
     24          1           0        1.620599   -0.274086    2.237728
 ---------------------------------------------------------------------
                    Distance matrix (angstroms):
                    1          2          3          4          5
     1  C    0.000000
     2  C    1.404374   0.000000
     3  Cl   2.757206   1.737249   0.000000
     4  C    2.421116   1.394639   2.687987   0.000000
     5  C    2.794382   2.417393   3.994480   1.392550   0.000000
     6  C    2.427475   2.800787   4.536228   2.417877   1.394541
     7  C    1.398327   2.416369   4.038714   2.777328   2.401616
     8  N    1.440527   2.554663   3.233964   3.794008   4.226380
     9  N    2.289015   2.928921   2.956581   4.295398   5.000398
    10  C    3.474294   3.779331   3.232104   5.132772   6.015191
    11  C    4.231231   4.491391   4.014187   5.711807   6.539817
    12  Cl   4.040727   4.486132   4.599360   5.483286   6.015226
    13  C    5.554588   5.655575   4.875622   6.837306   7.765785
    14  C    6.189882   6.175793   5.084340   7.404742   8.462358
    15  C    5.699089   5.672170   4.477439   6.960280   8.060129
    16  C    4.432796   4.530624   3.539619   5.878286   6.905226
    17  H    3.403562   2.145658   2.793579   1.090911   2.164921
    18  H    3.886113   3.401524   4.837118   2.149649   1.091781
    19  H    3.414505   3.891934   5.627177   3.408862   2.163370
    20  H    2.129466   3.388420   4.884650   3.868334   3.405936
    21  H    6.265609   6.364683   5.682654   7.450690   8.317064
    22  H    7.261024   7.186077   6.007842   8.373968   9.464667
    23  H    6.508018   6.404526   5.072405   7.665843   8.819473
    24  H    4.408574   4.497000   3.513214   5.826424   6.846938
                    6          7          8          9         10
     6  C    0.000000
     7  C    1.388721   0.000000
     8  N    3.675283   2.368436   0.000000
     9  N    4.667910   3.451684   1.212855   0.000000
    10  C    5.841831   4.700402   2.537206   1.325328   0.000000
    11  C    6.380095   5.324381   3.452073   2.379894   1.418839
    12  Cl   5.710097   4.774646   3.530718   2.935588   2.718212
    13  C    7.708171   6.691980   4.784440   3.644303   2.440017
    14  C    8.486083   7.444669   5.361263   4.150478   2.825279
    15  C    8.090204   7.015183   4.827021   3.647550   2.428562
    16  C    6.851997   5.737621   3.517880   2.394734   1.415987
    17  H    3.411119   3.868036   4.690741   5.016724   5.670905
    18  H    2.161863   3.395347   5.317634   6.078568   7.056940
    19  H    1.091152   2.155011   4.523039   5.582740   6.788915
    20  H    2.172447   1.091768   2.484195   3.644374   4.927233
    21  H    8.258328   7.306005   5.573807   4.511263   3.417087
    22  H    9.535096   8.518276   6.451486   5.240915   3.915738
    23  H    8.904399   7.845358   5.652193   4.527321   3.410576
    24  H    6.797069   5.694090   3.527572   2.642307   2.162663
                   11         12         13         14         15
    11  C    0.000000
    12  Cl   1.743782   0.000000
    13  C    1.387134   2.731071   0.000000
    14  C    2.416836   4.029534   1.394363   0.000000
    15  C    2.777761   4.521143   2.403414   1.395471   0.000000
    16  C    2.430326   4.027261   2.795692   2.428116   1.387839
    17  H    6.205148   6.098938   7.191324   7.663622   7.226546
    18  H    7.527963   6.938779   8.716328   9.421429   9.044969
    19  H    7.276079   6.458211   8.622032   9.457452   9.090914
    20  H    5.528242   4.897887   6.915056   7.703287   7.291177
    21  H    2.133747   2.854589   1.091424   2.168551   3.402773
    22  H    3.403321   4.889706   2.158864   1.090467   2.167625
    23  H    3.869985   5.613216   3.396785   2.159530   1.092269
    24  H    3.416338   4.880277   3.885713   3.419849   2.164147
                   16         17         18         19         20
    16  C    0.000000
    17  H    6.267289   0.000000
    18  H    7.925580   2.486796   0.000000
    19  H    7.840394   4.316897   2.499470   0.000000
    20  H    6.000602   4.958764   4.319025   2.513530   0.000000
    21  H    3.886920   7.783932   9.220255   9.122973   7.508643
    22  H    3.416649   8.561297  10.397204  10.509722   8.782818
    23  H    2.137287   7.855107   9.786002   9.920872   8.136008
    24  H    1.090051   6.211747   7.860796   7.781044   5.960083
                   21         22         23         24
    21  H    0.000000
    22  H    2.504021   0.000000
    23  H    4.313227   2.500969   0.000000
    24  H    4.976874   4.322605   2.475319   0.000000
 Symmetry turned off by external request.
 Stoichiometry    C12H8Cl2N2
 Framework group  C1[X(C12H8Cl2N2)]
 Deg. of freedom    66
 Full point group                 C1      NOp   1
 Rotational constants (GHZ):           0.8524940           0.2816315           0.2467576
 Leave Link  202 at Fri Mar  6 17:31:52 2026, MaxMem=   104857600 cpu:               0.0 elap:               0.1
 (Enter /prod/precompiled/gaussian/16c2/g16/l301.exe)
 Standard basis: def2SVP (5D, 7F)
 Ernie: Thresh=  0.10000D-02 Tol=  0.10000D-05 Strict=F.
   272 basis functions,   480 primitive gaussians,   288 cartesian basis functions
    64 alpha electrons       64 beta electrons
       nuclear repulsion energy      1226.7379704920 Hartrees.
 IExCor= 4639 DFT=T Ex+Corr=wB97XD ExCW=0 ScaHFX=  1.000000
 ScaDFX=  1.000000  1.000000  1.000000  1.000000 ScalE2=  1.000000  1.000000
 IRadAn=      5 IRanWt=     -1 IRanGd=            0 ICorTp=0 IEmpDi=121
 HFx  wShort=  0.000000 wLong=  0.200000 cFull=  0.222036 cShort=  0.000000 cLong=  0.777964
 DFx  wShort=  0.000000 wLong=  0.200000 cFull=  0.000000 cShort=  0.000000 cLong=  1.000000
 NAtoms=   24 NActive=   24 NUniq=   24 SFac= 1.00D+00 NAtFMM=   60 NAOKFM=F Big=F
 Integral buffers will be    131072 words long.
 Raffenetti 2 integral format.
 Two-electron integral symmetry is turned off.
 R6Disp:  Grimme-D2 Dispersion energy=       -0.0145671428 Hartrees.
 Nuclear repulsion after empirical dispersion term =     1226.7234033492 Hartrees.
 Leave Link  301 at Fri Mar  6 17:31:52 2026, MaxMem=   104857600 cpu:               0.0 elap:               0.1
 (Enter /prod/precompiled/gaussian/16c2/g16/l302.exe)
 NPDir=0 NMtPBC=     1 NCelOv=     1 NCel=       1 NClECP=     1 NCelD=      1
         NCelK=      1 NCelE2=     1 NClLst=     1 CellRange=     0.0.
 One-electron integrals computed using PRISM.
   1 Symmetry operations used in ECPInt.
 ECPInt:  NShTT=    7750 NPrTT=   30142 LenC2=    7118 LenP2D=   19310.
 LDataN:  DoStor=T MaxTD1= 4 Len=   56
 NBasis=   272 RedAO= T EigKep=  2.29D-04  NBF=   272
 NBsUse=   272 1.00D-06 EigRej= -1.00D+00 NBFU=   272
 Precomputing XC quadrature grid using
 IXCGrd= 4 IRadAn=           5 IRanWt=          -1 IRanGd=           0 AccXCQ= 0.00D+00.
 Generated NRdTot=       0 NPtTot=           0 NUsed=           0 NTot=          32
 NSgBfM=   285   285   285   285   285 MxSgAt=    24 MxSgA2=    24.
 Leave Link  302 at Fri Mar  6 17:31:53 2026, MaxMem=   104857600 cpu:               0.4 elap:               0.5
 (Enter /prod/precompiled/gaussian/16c2/g16/l303.exe)
 DipDrv:  MaxL=1.
 Leave Link  303 at Fri Mar  6 17:31:53 2026, MaxMem=   104857600 cpu:               0.1 elap:               0.1
 (Enter /prod/precompiled/gaussian/16c2/g16/l401.exe)
 ExpMin= 1.22D-01 ExpMax= 1.04D+04 ExpMxC= 1.57D+03 IAcc=3 IRadAn=         5 AccDes= 0.00D+00
 Harris functional with IExCor= 4639 and IRadAn=       5 diagonalized for initial guess.
 HarFok:  IExCor= 4639 AccDes= 0.00D+00 IRadAn=         5 IDoV= 1 UseB2=F ITyADJ=14
 ICtDFT=  3500011 ScaDFX=  1.000000  1.000000  1.000000  1.000000
 FoFCou: FMM=F IPFlag=           0 FMFlag=      100000 FMFlg1=           0
         NFxFlg=           0 DoJE=T BraDBF=F KetDBF=T FulRan=T
         wScrn=  0.000000 ICntrl=       500 IOpCl=  0 I1Cent=   200000004 NGrid=           0
         NMat0=    1 NMatS0=      1 NMatT0=    0 NMatD0=    1 NMtDS0=    0 NMtDT0=    0
 Symmetry not used in FoFCou.
 Harris En= -1450.78077159115    
 JPrj=0 DoOrth=F DoCkMO=F.
 Leave Link  401 at Fri Mar  6 17:31:59 2026, MaxMem=   104857600 cpu:               5.2 elap:               5.4
 (Enter /prod/precompiled/gaussian/16c2/g16/l502.exe)
 Two-electron integral symmetry not used.
 Closed shell SCF:
 Using DIIS extrapolation, IDIIS=  1040.
 NGot=   104857600 LenX=   104687130 LenY=   104603745
 Requested convergence on RMS density matrix=1.00D-08 within 200 cycles.
 Requested convergence on MAX density matrix=1.00D-06.
 Requested convergence on             energy=1.00D-06.
 No special actions if energy rises.
 Fock matrices will be formed incrementally for  20 cycles.
 Integral accuracy reduced to 1.0D-05 until final iterations.

 Cycle   1  Pass 0  IDiag  1:
 FoFJK:  IHMeth= 1 ICntrl=       0 DoSepK=T KAlg= 0 I1Cent=           0 FoldK=F
 IRaf=         1 NMat=       1 IRICut=       1 DoRegI=T DoRafI=F ISym2E= 0 IDoP0=0 IntGTp=1.
 FoFCou: FMM=F IPFlag=           0 FMFlag=      100000 FMFlg1=           0
         NFxFlg=           0 DoJE=T BraDBF=F KetDBF=F FulRan=T
         wScrn=  0.000000 ICntrl=       500 IOpCl=  0 I1Cent=           0 NGrid=           0
         NMat0=    1 NMatS0=      1 NMatT0=    0 NMatD0=    1 NMtDS0=    0 NMtDT0=    0
 Symmetry not used in FoFCou.
 E= -1490.42349902585    
 DIIS: error= 3.72D-02 at cycle   1 NSaved=   1.
 NSaved= 1 IEnMin= 1 EnMin= -1490.42349902585     IErMin= 1 ErrMin= 3.72D-02
 ErrMax= 3.72D-02  0.00D+00 EMaxC= 1.00D-01 BMatC= 8.30D-01 BMatP= 8.30D-01
 IDIUse=3 WtCom= 6.28D-01 WtEn= 3.72D-01
 Coeff-Com:  0.100D+01
 Coeff-En:   0.100D+01
 Coeff:      0.100D+01
 Gap=     0.216 Goal=   None    Shift=    0.000
 GapD=    0.216 DampG=1.000 DampE=0.500 DampFc=0.5000 IDamp=-1.
 Damping current iteration by 5.00D-01
 RMSDP=8.45D-03 MaxDP=3.32D-01              OVMax= 8.97D-01

 Cycle   2  Pass 0  IDiag  1:
 RMSU=  4.16D-03    CP:  9.73D-01
 E= -1490.28649748677     Delta-E=        0.137001539087 Rises=F Damp=T
 DIIS: error= 2.06D-02 at cycle   2 NSaved=   2.
 NSaved= 2 IEnMin= 1 EnMin= -1490.42349902585     IErMin= 2 ErrMin= 2.06D-02
 ErrMax= 2.06D-02  0.00D+00 EMaxC= 1.00D-01 BMatC= 2.32D-01 BMatP= 8.30D-01
 IDIUse=3 WtCom= 7.94D-01 WtEn= 2.06D-01
 Coeff-Com:  0.184D+00 0.816D+00
 Coeff-En:   0.598D+00 0.402D+00
 Coeff:      0.269D+00 0.731D+00
 Gap=    -0.266 Goal=   None    Shift=    0.000
 RMSDP=4.04D-03 MaxDP=1.74D-01 DE= 1.37D-01 OVMax= 5.75D-01

 Cycle   3  Pass 0  IDiag  1:
 RMSU=  3.89D-03    CP:  9.60D-01  7.53D-01
 E= -1490.67851354723     Delta-E=       -0.392016060465 Rises=F Damp=F
 DIIS: error= 2.58D-02 at cycle   3 NSaved=   3.
 NSaved= 3 IEnMin= 3 EnMin= -1490.67851354723     IErMin= 2 ErrMin= 2.06D-02
 ErrMax= 2.58D-02  0.00D+00 EMaxC= 1.00D-01 BMatC= 2.45D-01 BMatP= 2.32D-01
 IDIUse=3 WtCom= 7.42D-01 WtEn= 2.58D-01
 Coeff-Com: -0.932D-01 0.547D+00 0.547D+00
 Coeff-En:   0.000D+00 0.224D+00 0.776D+00
 Coeff:     -0.692D-01 0.463D+00 0.606D+00
 Gap=     0.299 Goal=   None    Shift=    0.000
 RMSDP=2.62D-03 MaxDP=9.51D-02 DE=-3.92D-01 OVMax= 2.55D-01

 Cycle   4  Pass 0  IDiag  1:
 RMSU=  2.02D-03    CP:  9.53D-01  8.92D-01  5.99D-01
 E= -1490.97215312968     Delta-E=       -0.293639582449 Rises=F Damp=F
 DIIS: error= 3.24D-03 at cycle   4 NSaved=   4.
 NSaved= 4 IEnMin= 4 EnMin= -1490.97215312968     IErMin= 4 ErrMin= 3.24D-03
 ErrMax= 3.24D-03  0.00D+00 EMaxC= 1.00D-01 BMatC= 5.58D-03 BMatP= 2.32D-01
 IDIUse=3 WtCom= 9.68D-01 WtEn= 3.24D-02
 Coeff-Com: -0.615D-01 0.119D+00 0.120D+00 0.822D+00
 Coeff-En:   0.000D+00 0.000D+00 0.000D+00 0.100D+01
 Coeff:     -0.595D-01 0.115D+00 0.116D+00 0.828D+00
 Gap=     0.203 Goal=   None    Shift=    0.000
 RMSDP=6.10D-04 MaxDP=2.19D-02 DE=-2.94D-01 OVMax= 5.41D-02

 Cycle   5  Pass 0  IDiag  1:
 RMSU=  5.00D-04    CP:  9.50D-01  9.61D-01  6.43D-01  1.03D+00
 E= -1490.98114386146     Delta-E=       -0.008990731779 Rises=F Damp=F
 DIIS: error= 2.36D-03 at cycle   5 NSaved=   5.
 NSaved= 5 IEnMin= 5 EnMin= -1490.98114386146     IErMin= 5 ErrMin= 2.36D-03
 ErrMax= 2.36D-03  0.00D+00 EMaxC= 1.00D-01 BMatC= 1.23D-03 BMatP= 5.58D-03
 IDIUse=3 WtCom= 9.76D-01 WtEn= 2.36D-02
 Coeff-Com: -0.126D-01 0.853D-02-0.210D-01 0.254D+00 0.772D+00
 Coeff-En:   0.000D+00 0.000D+00 0.000D+00 0.000D+00 0.100D+01
 Coeff:     -0.123D-01 0.833D-02-0.205D-01 0.248D+00 0.777D+00
 Gap=     0.214 Goal=   None    Shift=    0.000
 RMSDP=2.89D-04 MaxDP=8.02D-03 DE=-8.99D-03 OVMax= 3.51D-02

 Cycle   6  Pass 0  IDiag  1:
 RMSU=  2.06D-04    CP:  9.49D-01  9.76D-01  6.25D-01  1.11D+00  1.11D+00
 E= -1490.98350770229     Delta-E=       -0.002363840836 Rises=F Damp=F
 DIIS: error= 5.97D-04 at cycle   6 NSaved=   6.
 NSaved= 6 IEnMin= 6 EnMin= -1490.98350770229     IErMin= 6 ErrMin= 5.97D-04
 ErrMax= 5.97D-04  0.00D+00 EMaxC= 1.00D-01 BMatC= 2.32D-04 BMatP= 1.23D-03
 IDIUse=3 WtCom= 9.94D-01 WtEn= 5.97D-03
 Coeff-Com:  0.844D-02-0.169D-01-0.209D-01-0.576D-01 0.287D+00 0.800D+00
 Coeff-En:   0.000D+00 0.000D+00 0.000D+00 0.000D+00 0.000D+00 0.100D+01
 Coeff:      0.839D-02-0.168D-01-0.208D-01-0.573D-01 0.285D+00 0.801D+00
 Gap=     0.222 Goal=   None    Shift=    0.000
 RMSDP=1.41D-04 MaxDP=5.27D-03 DE=-2.36D-03 OVMax= 1.81D-02

 Cycle   7  Pass 0  IDiag  1:
 RMSU=  1.01D-04    CP:  9.49D-01  9.75D-01  6.25D-01  1.13D+00  1.29D+00
                    CP:  1.15D+00
 E= -1490.98395002903     Delta-E=       -0.000442326733 Rises=F Damp=F
 DIIS: error= 4.28D-04 at cycle   7 NSaved=   7.
 NSaved= 7 IEnMin= 7 EnMin= -1490.98395002903     IErMin= 7 ErrMin= 4.28D-04
 ErrMax= 4.28D-04  0.00D+00 EMaxC= 1.00D-01 BMatC= 1.01D-04 BMatP= 2.32D-04
 IDIUse=3 WtCom= 9.96D-01 WtEn= 4.28D-03
 Coeff-Com:  0.699D-02-0.115D-01 0.189D-02-0.601D-01-0.771D-02 0.338D+00
 Coeff-Com:  0.733D+00
 Coeff-En:   0.000D+00 0.000D+00 0.000D+00 0.000D+00 0.000D+00 0.000D+00
 Coeff-En:   0.100D+01
 Coeff:      0.696D-02-0.114D-01 0.189D-02-0.598D-01-0.768D-02 0.336D+00
 Coeff:      0.734D+00
 Gap=     0.223 Goal=   None    Shift=    0.000
 RMSDP=6.54D-05 MaxDP=2.35D-03 DE=-4.42D-04 OVMax= 5.22D-03

 Cycle   8  Pass 0  IDiag  1:
 RMSU=  3.95D-05    CP:  9.48D-01  9.72D-01  6.29D-01  1.13D+00  1.33D+00
                    CP:  1.34D+00  1.20D+00
 E= -1490.98406984622     Delta-E=       -0.000119817189 Rises=F Damp=F
 DIIS: error= 3.17D-04 at cycle   8 NSaved=   8.
 NSaved= 8 IEnMin= 8 EnMin= -1490.98406984622     IErMin= 8 ErrMin= 3.17D-04
 ErrMax= 3.17D-04  0.00D+00 EMaxC= 1.00D-01 BMatC= 2.60D-05 BMatP= 1.01D-04
 IDIUse=3 WtCom= 9.97D-01 WtEn= 3.17D-03
 Coeff-Com:  0.111D-02-0.185D-02 0.112D-01-0.271D-02-0.785D-01-0.754D-01
 Coeff-Com:  0.293D+00 0.853D+00
 Coeff-En:   0.000D+00 0.000D+00 0.000D+00 0.000D+00 0.000D+00 0.000D+00
 Coeff-En:   0.000D+00 0.100D+01
 Coeff:      0.110D-02-0.185D-02 0.112D-01-0.270D-02-0.782D-01-0.751D-01
 Coeff:      0.293D+00 0.853D+00
 Gap=     0.223 Goal=   None    Shift=    0.000
 RMSDP=4.15D-05 MaxDP=1.06D-03 DE=-1.20D-04 OVMax= 2.57D-03

 Cycle   9  Pass 0  IDiag  1:
 RMSU=  2.06D-05    CP:  9.49D-01  9.70D-01  6.32D-01  1.13D+00  1.34D+00
                    CP:  1.43D+00  1.44D+00  1.19D+00
 E= -1490.98410652623     Delta-E=       -0.000036680012 Rises=F Damp=F
 DIIS: error= 8.42D-05 at cycle   9 NSaved=   9.
 NSaved= 9 IEnMin= 9 EnMin= -1490.98410652623     IErMin= 9 ErrMin= 8.42D-05
 ErrMax= 8.42D-05  0.00D+00 EMaxC= 1.00D-01 BMatC= 3.02D-06 BMatP= 2.60D-05
 IDIUse=1 WtCom= 1.00D+00 WtEn= 0.00D+00
 Coeff-Com: -0.463D-03 0.435D-03 0.377D-02 0.104D-01-0.214D-01-0.776D-01
 Coeff-Com: -0.450D-01 0.352D+00 0.777D+00
 Coeff:     -0.463D-03 0.435D-03 0.377D-02 0.104D-01-0.214D-01-0.776D-01
 Coeff:     -0.450D-01 0.352D+00 0.777D+00
 Gap=     0.223 Goal=   None    Shift=    0.000
 RMSDP=1.39D-05 MaxDP=3.45D-04 DE=-3.67D-05 OVMax= 8.95D-04

 Cycle  10  Pass 0  IDiag  1:
 RMSU=  8.30D-06    CP:  9.49D-01  9.69D-01  6.32D-01  1.13D+00  1.34D+00
                    CP:  1.45D+00  1.51D+00  1.35D+00  9.87D-01
 E= -1490.98411099271     Delta-E=       -0.000004466485 Rises=F Damp=F
 DIIS: error= 2.57D-05 at cycle  10 NSaved=  10.
 NSaved=10 IEnMin=10 EnMin= -1490.98411099271     IErMin=10 ErrMin= 2.57D-05
 ErrMax= 2.57D-05  0.00D+00 EMaxC= 1.00D-01 BMatC= 3.11D-07 BMatP= 3.02D-06
 IDIUse=1 WtCom= 1.00D+00 WtEn= 0.00D+00
 Coeff-Com: -0.189D-03 0.306D-03-0.416D-03 0.293D-02 0.341D-02-0.797D-02
 Coeff-Com: -0.487D-01 0.142D-01 0.275D+00 0.761D+00
 Coeff:     -0.189D-03 0.306D-03-0.416D-03 0.293D-02 0.341D-02-0.797D-02
 Coeff:     -0.487D-01 0.142D-01 0.275D+00 0.761D+00
 Gap=     0.223 Goal=   None    Shift=    0.000
 RMSDP=4.24D-06 MaxDP=8.97D-05 DE=-4.47D-06 OVMax= 3.04D-04

 Initial convergence to 1.0D-05 achieved.  Increase integral accuracy.
 Cycle  11  Pass 1  IDiag  1:
 E= -1490.98410718883     Delta-E=        0.000003803878 Rises=F Damp=F
 DIIS: error= 7.29D-05 at cycle   1 NSaved=   1.
 NSaved= 1 IEnMin= 1 EnMin= -1490.98410718883     IErMin= 1 ErrMin= 7.29D-05
 ErrMax= 7.29D-05  0.00D+00 EMaxC= 1.00D-01 BMatC= 9.68D-07 BMatP= 9.68D-07
 IDIUse=1 WtCom= 1.00D+00 WtEn= 0.00D+00
 Coeff-Com:  0.100D+01
 Coeff:      0.100D+01
 Gap=     0.223 Goal=   None    Shift=    0.000
 RMSDP=4.24D-06 MaxDP=8.97D-05 DE= 3.80D-06 OVMax= 3.06D-04

 Cycle  12  Pass 1  IDiag  1:
 RMSU=  8.15D-05    CP:  1.00D+00
 E= -1490.98410814573     Delta-E=       -0.000000956899 Rises=F Damp=F
 DIIS: error= 9.26D-06 at cycle   2 NSaved=   2.
 NSaved= 2 IEnMin= 2 EnMin= -1490.98410814573     IErMin= 2 ErrMin= 9.26D-06
 ErrMax= 9.26D-06  0.00D+00 EMaxC= 1.00D-01 BMatC= 5.51D-08 BMatP= 9.68D-07
 IDIUse=1 WtCom= 1.00D+00 WtEn= 0.00D+00
 Coeff-Com:  0.404D-01 0.960D+00
 Coeff:      0.404D-01 0.960D+00
 Gap=     0.223 Goal=   None    Shift=    0.000
 RMSDP=5.04D-06 MaxDP=8.60D-05 DE=-9.57D-07 OVMax= 1.40D-04

 Cycle  13  Pass 1  IDiag  1:
 RMSU=  2.38D-06    CP:  1.00D+00  1.05D+00
 E= -1490.98410818379     Delta-E=       -0.000000038061 Rises=F Damp=F
 DIIS: error= 8.15D-06 at cycle   3 NSaved=   3.
 NSaved= 3 IEnMin= 3 EnMin= -1490.98410818379     IErMin= 3 ErrMin= 8.15D-06
 ErrMax= 8.15D-06  0.00D+00 EMaxC= 1.00D-01 BMatC= 4.82D-08 BMatP= 5.51D-08
 IDIUse=1 WtCom= 1.00D+00 WtEn= 0.00D+00
 Coeff-Com: -0.315D-01 0.491D+00 0.541D+00
 Coeff:     -0.315D-01 0.491D+00 0.541D+00
 Gap=     0.223 Goal=   None    Shift=    0.000
 RMSDP=1.27D-06 MaxDP=3.98D-05 DE=-3.81D-08 OVMax= 1.01D-04

 Cycle  14  Pass 1  IDiag  1:
 RMSU=  1.00D-06    CP:  1.00D+00  1.06D+00  7.87D-01
 E= -1490.98410824091     Delta-E=       -0.000000057114 Rises=F Damp=F
 DIIS: error= 2.07D-06 at cycle   4 NSaved=   4.
 NSaved= 4 IEnMin= 4 EnMin= -1490.98410824091     IErMin= 4 ErrMin= 2.07D-06
 ErrMax= 2.07D-06  0.00D+00 EMaxC= 1.00D-01 BMatC= 1.64D-09 BMatP= 4.82D-08
 IDIUse=1 WtCom= 1.00D+00 WtEn= 0.00D+00
 Coeff-Com: -0.909D-02 0.522D-01 0.120D+00 0.837D+00
 Coeff:     -0.909D-02 0.522D-01 0.120D+00 0.837D+00
 Gap=     0.223 Goal=   None    Shift=    0.000
 RMSDP=4.87D-07 MaxDP=1.29D-05 DE=-5.71D-08 OVMax= 6.47D-05

 Cycle  15  Pass 1  IDiag  1:
 RMSU=  3.85D-07    CP:  1.00D+00  1.06D+00  8.72D-01  1.21D+00
 E= -1490.98410824834     Delta-E=       -0.000000007436 Rises=F Damp=F
 DIIS: error= 1.29D-06 at cycle   5 NSaved=   5.
 NSaved= 5 IEnMin= 5 EnMin= -1490.98410824834     IErMin= 5 ErrMin= 1.29D-06
 ErrMax= 1.29D-06  0.00D+00 EMaxC= 1.00D-01 BMatC= 6.61D-10 BMatP= 1.64D-09
 IDIUse=1 WtCom= 1.00D+00 WtEn= 0.00D+00
 Coeff-Com:  0.814D-02-0.155D+00-0.146D+00 0.275D+00 0.102D+01
 Coeff:      0.814D-02-0.155D+00-0.146D+00 0.275D+00 0.102D+01
 Gap=     0.223 Goal=   None    Shift=    0.000
 RMSDP=5.28D-07 MaxDP=1.65D-05 DE=-7.44D-09 OVMax= 8.12D-05

 Cycle  16  Pass 1  IDiag  1:
 RMSU=  2.47D-07    CP:  1.00D+00  1.06D+00  9.48D-01  1.56D+00  1.66D+00
 E= -1490.98410825368     Delta-E=       -0.000000005339 Rises=F Damp=F
 DIIS: error= 8.94D-07 at cycle   6 NSaved=   6.
 NSaved= 6 IEnMin= 6 EnMin= -1490.98410825368     IErMin= 6 ErrMin= 8.94D-07
 ErrMax= 8.94D-07  0.00D+00 EMaxC= 1.00D-01 BMatC= 1.89D-10 BMatP= 6.61D-10
 IDIUse=1 WtCom= 1.00D+00 WtEn= 0.00D+00
 Coeff-Com:  0.468D-02-0.655D-01-0.709D-01-0.749D-01 0.327D+00 0.880D+00
 Coeff:      0.468D-02-0.655D-01-0.709D-01-0.749D-01 0.327D+00 0.880D+00
 Gap=     0.223 Goal=   None    Shift=    0.000
 RMSDP=3.02D-07 MaxDP=1.07D-05 DE=-5.34D-09 OVMax= 5.00D-05

 Cycle  17  Pass 1  IDiag  1:
 RMSU=  1.02D-07    CP:  1.00D+00  1.06D+00  9.86D-01  1.70D+00  2.11D+00
                    CP:  1.58D+00
 E= -1490.98410825551     Delta-E=       -0.000000001824 Rises=F Damp=F
 DIIS: error= 6.18D-07 at cycle   7 NSaved=   7.
 NSaved= 7 IEnMin= 7 EnMin= -1490.98410825551     IErMin= 7 ErrMin= 6.18D-07
 ErrMax= 6.18D-07  0.00D+00 EMaxC= 1.00D-01 BMatC= 8.83D-11 BMatP= 1.89D-10
 IDIUse=1 WtCom= 1.00D+00 WtEn= 0.00D+00
 Coeff-Com: -0.109D-02 0.328D-01 0.291D-01-0.146D+00-0.285D+00 0.390D+00
 Coeff-Com:  0.980D+00
 Coeff:     -0.109D-02 0.328D-01 0.291D-01-0.146D+00-0.285D+00 0.390D+00
 Coeff:      0.980D+00
 Gap=     0.223 Goal=   None    Shift=    0.000
 RMSDP=2.79D-07 MaxDP=1.04D-05 DE=-1.82D-09 OVMax= 4.70D-05

 Cycle  18  Pass 1  IDiag  1:
 RMSU=  7.85D-08    CP:  1.00D+00  1.06D+00  1.01D+00  1.80D+00  2.55D+00
                    CP:  2.21D+00  1.63D+00
 E= -1490.98410825657     Delta-E=       -0.000000001060 Rises=F Damp=F
 DIIS: error= 3.64D-07 at cycle   8 NSaved=   8.
 NSaved= 8 IEnMin= 8 EnMin= -1490.98410825657     IErMin= 8 ErrMin= 3.64D-07
 ErrMax= 3.64D-07  0.00D+00 EMaxC= 1.00D-01 BMatC= 3.56D-11 BMatP= 8.83D-11
 IDIUse=1 WtCom= 1.00D+00 WtEn= 0.00D+00
 Coeff-Com: -0.220D-02 0.392D-01 0.404D-01-0.446D-01-0.254D+00-0.115D+00
 Coeff-Com:  0.476D+00 0.860D+00
 Coeff:     -0.220D-02 0.392D-01 0.404D-01-0.446D-01-0.254D+00-0.115D+00
 Coeff:      0.476D+00 0.860D+00
 Gap=     0.223 Goal=   None    Shift=    0.000
 RMSDP=1.72D-07 MaxDP=6.78D-06 DE=-1.06D-09 OVMax= 3.00D-05

 Cycle  19  Pass 1  IDiag  1:
 RMSU=  4.06D-08    CP:  1.00D+00  1.06D+00  1.03D+00  1.87D+00  2.79D+00
                    CP:  2.59D+00  2.24D+00  1.56D+00
 E= -1490.98410825698     Delta-E=       -0.000000000407 Rises=F Damp=F
 DIIS: error= 2.14D-07 at cycle   9 NSaved=   9.
 NSaved= 9 IEnMin= 9 EnMin= -1490.98410825698     IErMin= 9 ErrMin= 2.14D-07
 ErrMax= 2.14D-07  0.00D+00 EMaxC= 1.00D-01 BMatC= 1.10D-11 BMatP= 3.56D-11
 IDIUse=1 WtCom= 1.00D+00 WtEn= 0.00D+00
 Coeff-Com: -0.889D-04-0.554D-02-0.337D-02 0.545D-01 0.738D-01-0.212D+00
 Coeff-Com: -0.389D+00 0.213D+00 0.127D+01
 Coeff:     -0.889D-04-0.554D-02-0.337D-02 0.545D-01 0.738D-01-0.212D+00
 Coeff:     -0.389D+00 0.213D+00 0.127D+01
 Gap=     0.223 Goal=   None    Shift=    0.000
 RMSDP=1.65D-07 MaxDP=6.52D-06 DE=-4.07D-10 OVMax= 2.88D-05

 Cycle  20  Pass 1  IDiag  1:
 RMSU=  2.21D-08    CP:  1.00D+00  1.06D+00  1.04D+00  1.92D+00  3.00D+00
                    CP:  2.93D+00  2.88D+00  2.36D+00  1.69D+00
 E= -1490.98410825718     Delta-E=       -0.000000000203 Rises=F Damp=F
 DIIS: error= 6.34D-08 at cycle  10 NSaved=  10.
 NSaved=10 IEnMin=10 EnMin= -1490.98410825718     IErMin=10 ErrMin= 6.34D-08
 ErrMax= 6.34D-08  0.00D+00 EMaxC= 1.00D-01 BMatC= 2.53D-12 BMatP= 1.10D-11
 IDIUse=1 WtCom= 1.00D+00 WtEn= 0.00D+00
 Coeff-Com:  0.511D-03-0.122D-01-0.117D-01 0.337D-01 0.962D-01-0.533D-01
 Coeff-Com: -0.297D+00-0.141D+00 0.511D+00 0.873D+00
 Coeff:      0.511D-03-0.122D-01-0.117D-01 0.337D-01 0.962D-01-0.533D-01
 Coeff:     -0.297D+00-0.141D+00 0.511D+00 0.873D+00
 Gap=     0.223 Goal=   None    Shift=    0.000
 RMSDP=6.39D-08 MaxDP=2.54D-06 DE=-2.03D-10 OVMax= 1.12D-05

 Cycle  21  Pass 1  IDiag  1:
 RMSU=  3.49D-08    CP:  1.00D+00  1.06D+00  1.05D+00  1.94D+00  3.00D+00
                    CP:  3.00D+00  3.00D+00  2.71D+00  2.09D+00  1.35D+00
 E= -1490.98410825720     Delta-E=       -0.000000000019 Rises=F Damp=F
 DIIS: error= 1.94D-08 at cycle  11 NSaved=  11.
 NSaved=11 IEnMin=11 EnMin= -1490.98410825720     IErMin=11 ErrMin= 1.94D-08
 ErrMax= 1.94D-08  0.00D+00 EMaxC= 1.00D-01 BMatC= 2.82D-13 BMatP= 2.53D-12
 IDIUse=1 WtCom= 1.00D+00 WtEn= 0.00D+00
 Coeff-Com:  0.161D-03-0.253D-02-0.294D-02 0.418D-03 0.137D-01 0.212D-01
 Coeff-Com: -0.161D-01-0.749D-01-0.645D-01 0.239D+00 0.886D+00
 Coeff:      0.161D-03-0.253D-02-0.294D-02 0.418D-03 0.137D-01 0.212D-01
 Coeff:     -0.161D-01-0.749D-01-0.645D-01 0.239D+00 0.886D+00
 Gap=     0.223 Goal=   None    Shift=    0.000
 RMSDP=1.39D-08 MaxDP=5.12D-07 DE=-1.86D-11 OVMax= 2.29D-06

 Cycle  22  Pass 1  IDiag  1:
 RMSU=  4.07D-09    CP:  1.00D+00  1.06D+00  1.05D+00  1.95D+00  3.00D+00
                    CP:  3.00D+00  3.00D+00  2.77D+00  2.21D+00  1.58D+00
                    CP:  1.25D+00
 E= -1490.98410825719     Delta-E=        0.000000000007 Rises=F Damp=F
 DIIS: error= 1.05D-08 at cycle  12 NSaved=  12.
 NSaved=12 IEnMin=11 EnMin= -1490.98410825720     IErMin=12 ErrMin= 1.05D-08
 ErrMax= 1.05D-08  0.00D+00 EMaxC= 1.00D-01 BMatC= 4.00D-14 BMatP= 2.82D-13
 IDIUse=1 WtCom= 1.00D+00 WtEn= 0.00D+00
 Coeff-Com: -0.262D-04 0.103D-02 0.764D-03-0.453D-02-0.103D-01 0.152D-01
 Coeff-Com:  0.390D-01-0.371D-02-0.967D-01-0.480D-01 0.272D+00 0.835D+00
 Coeff:     -0.262D-04 0.103D-02 0.764D-03-0.453D-02-0.103D-01 0.152D-01
 Coeff:      0.390D-01-0.371D-02-0.967D-01-0.480D-01 0.272D+00 0.835D+00
 Gap=     0.223 Goal=   None    Shift=    0.000
 RMSDP=3.09D-09 MaxDP=7.45D-08 DE= 7.28D-12 OVMax= 4.07D-07

 SCF Done:  E(RwB97XD) =  -1490.98410826     A.U. after   22 cycles
            NFock= 22  Conv=0.31D-08     -V/T= 2.0053
 KE= 1.483120757457D+03 PE=-5.963578179829D+03 EE= 1.762749910765D+03
 Leave Link  502 at Fri Mar  6 17:35:30 2026, MaxMem=   104857600 cpu:             207.1 elap:             210.8
 (Enter /prod/precompiled/gaussian/16c2/g16/l508.exe)
 QCSCF skips out because SCF is already converged.
 Leave Link  508 at Fri Mar  6 17:35:30 2026, MaxMem=   104857600 cpu:               0.0 elap:               0.0
 (Enter /prod/precompiled/gaussian/16c2/g16/l801.exe)
 DoSCS=F DFT=T ScalE2(SS,OS)=  1.000000  1.000000
 Range of M.O.s used for correlation:     1   272
 NBasis=   272 NAE=    64 NBE=    64 NFC=     0 NFV=     0
 NROrb=    272 NOA=    64 NOB=    64 NVA=   208 NVB=   208

 **** Warning!!: The largest alpha MO coefficient is  0.13669313D+02

 Leave Link  801 at Fri Mar  6 17:35:30 2026, MaxMem=   104857600 cpu:               0.0 elap:               0.1
 (Enter /prod/precompiled/gaussian/16c2/g16/l1101.exe)
 Using compressed storage, NAtomX=    24.
 Will process     25 centers per pass.
   1 Symmetry operations used in ECPInt.
 ECPInt:  NShTT=    7750 NPrTT=   30142 LenC2=    7118 LenP2D=   19310.
 LDataN:  DoStor=T MaxTD1= 5 Len=  102
 R6Disp: Adding Grimme-D2 dispersion energy 1st derivatives to the gradient.
 Leave Link 1101 at Fri Mar  6 17:35:31 2026, MaxMem=   104857600 cpu:               0.2 elap:               0.3
 (Enter /prod/precompiled/gaussian/16c2/g16/l1102.exe)
 Symmetrizing basis deriv contribution to polar:
 IMax=3 JMax=2 DiffMx= 0.00D+00
 Leave Link 1102 at Fri Mar  6 17:35:31 2026, MaxMem=   104857600 cpu:               0.0 elap:               0.1
 (Enter /prod/precompiled/gaussian/16c2/g16/l1110.exe)
 Forming Gx(P) for the SCF density, NAtomX=    24.
 Integral derivatives from FoFJK, PRISM(SPDF).
 Do as many integral derivatives as possible in FoFJK.
 G2DrvN: MDV=     104855040.
 G2DrvN: will do    25 centers at a time, making    1 passes.
 Calling FoFCou, ICntrl=  3107 FMM=F I1Cent=   0 AccDes= 0.00D+00.
 FoFJK:  IHMeth= 1 ICntrl=    3107 DoSepK=T KAlg= 0 I1Cent=           0 FoldK=F
 IRaf=         1 NMat=       1 IRICut=       1 DoRegI=T DoRafI=F ISym2E= 0 IDoP0=0 IntGTp=1.
 FoFCou: FMM=F IPFlag=           0 FMFlag=      100000 FMFlg1=           0
         NFxFlg=           0 DoJE=F BraDBF=F KetDBF=F FulRan=T
         wScrn=  0.000000 ICntrl=      3507 IOpCl=  0 I1Cent=           0 NGrid=           0
         NMat0=    1 NMatS0=      1 NMatT0=    0 NMatD0=    1 NMtDS0=    0 NMtDT0=    0
 Symmetry not used in FoFCou.
 End of G2Drv F.D. properties file   721 does not exist.
 End of G2Drv F.D. properties file   722 does not exist.
 End of G2Drv F.D. properties file   788 does not exist.
 Leave Link 1110 at Fri Mar  6 17:39:12 2026, MaxMem=   104857600 cpu:             219.6 elap:             220.9
 (Enter /prod/precompiled/gaussian/16c2/g16/l1002.exe)
 Minotr:  Closed shell wavefunction.
          IDoAtm=111111111111111111111111
          Direct CPHF calculation.
          Differentiating once with respect to electric field.
                with respect to dipole field.
          Differentiating once with respect to nuclear coordinates.
          Requested convergence is 1.0D-08 RMS, and 1.0D-07 maximum.
          Secondary convergence is 1.0D-12 RMS, and 1.0D-12 maximum.
          NewPWx=T KeepS1=F KeepF1=F KeepIn=T MapXYZ=F SortEE=F KeepMc=T.
         7195 words used for storage of precomputed grid.
 Two-electron integral symmetry not used.
          MDV=     104857600 using IRadAn=       1.
          Solving linear equations simultaneously, MaxMat=     384.
 FoF2E skips out because all densities are zero.
 CalDSu exits because no D1Ps are significant.
 FoFJK:  IHMeth= 1 ICntrl=       0 DoSepK=T KAlg= 0 I1Cent=           0 FoldK=F
 IRaf=         1 NMat=      72 IRICut=       1 DoRegI=T DoRafI=F ISym2E= 0 IDoP0=3 IntGTp=3.
 FoFCou: FMM=F IPFlag=           0 FMFlag=      100000 FMFlg1=           0
         NFxFlg=           0 DoJE=F BraDBF=F KetDBF=F FulRan=T
         wScrn=  0.000000 ICntrl=       500 IOpCl=  0 I1Cent=           0 NGrid=           0
         NMat0=   72 NMatS0=     72 NMatT0=    0 NMatD0=   72 NMtDS0=    0 NMtDT0=    0
 Symmetry not used in FoFCou.
          There are    75 degrees of freedom in the 1st order CPHF.  IDoFFX=6 NUNeed=     3.
     72 vectors produced by pass  0 Test12= 1.77D-14 1.33D-09 XBig12= 1.39D+02 5.62D+00.
 AX will form    72 AO Fock derivatives at one time.
     72 vectors produced by pass  1 Test12= 1.77D-14 1.33D-09 XBig12= 1.20D+01 6.00D-01.
     72 vectors produced by pass  2 Test12= 1.77D-14 1.33D-09 XBig12= 4.81D-01 8.26D-02.
     72 vectors produced by pass  3 Test12= 1.77D-14 1.33D-09 XBig12= 8.05D-03 8.36D-03.
     72 vectors produced by pass  4 Test12= 1.77D-14 1.33D-09 XBig12= 8.34D-05 9.94D-04.
     72 vectors produced by pass  5 Test12= 1.77D-14 1.33D-09 XBig12= 5.10D-07 7.15D-05.
     68 vectors produced by pass  6 Test12= 1.77D-14 1.33D-09 XBig12= 2.80D-09 7.03D-06.
     44 vectors produced by pass  7 Test12= 1.77D-14 1.33D-09 XBig12= 1.36D-11 3.97D-07.
      3 vectors produced by pass  8 Test12= 1.77D-14 1.33D-09 XBig12= 6.72D-14 2.54D-08.
      2 vectors produced by pass  9 Test12= 1.77D-14 1.33D-09 XBig12= 3.49D-16 2.13D-09.
 InvSVY:  IOpt=1 It=  1 EMax= 4.22D-15
 Solved reduced A of dimension   549 with    75 vectors.
 FullF1:  Do perturbations      1 to       3.
 Isotropic polarizability for W=    0.000000      169.96 Bohr**3.
 End of Minotr F.D. properties file   721 does not exist.
 End of Minotr F.D. properties file   722 does not exist.
 End of Minotr F.D. properties file   788 does not exist.
 Leave Link 1002 at Fri Mar  6 17:47:53 2026, MaxMem=   104857600 cpu:             516.5 elap:             520.6
 (Enter /prod/precompiled/gaussian/16c2/g16/l601.exe)
 Copying SCF densities to generalized density rwf, IOpCl= 0 IROHF=0.

 **********************************************************************

            Population analysis using the SCF Density.

 **********************************************************************

 Alpha  occ. eigenvalues -- -101.69463-101.67283 -14.54624 -14.51898 -10.38540
 Alpha  occ. eigenvalues --  -10.38028 -10.35863 -10.35022 -10.33472 -10.33346
 Alpha  occ. eigenvalues --  -10.33275 -10.32888 -10.30881 -10.30491 -10.30342
 Alpha  occ. eigenvalues --  -10.29164  -9.60205  -9.58048  -7.35604  -7.34621
 Alpha  occ. eigenvalues --   -7.34569  -7.33435  -7.32454  -7.32443  -1.16976
 Alpha  occ. eigenvalues --   -1.01442  -0.99795  -0.95675  -0.93764  -0.91564
 Alpha  occ. eigenvalues --   -0.87456  -0.84747  -0.82681  -0.78333  -0.74355
 Alpha  occ. eigenvalues --   -0.72601  -0.70273  -0.66836  -0.65092  -0.60687
 Alpha  occ. eigenvalues --   -0.59425  -0.58401  -0.57735  -0.55209  -0.54219
 Alpha  occ. eigenvalues --   -0.53611  -0.52842  -0.52458  -0.51056  -0.48801
 Alpha  occ. eigenvalues --   -0.48047  -0.47720  -0.45977  -0.45507  -0.43775
 Alpha  occ. eigenvalues --   -0.43474  -0.41820  -0.40812  -0.39017  -0.36670
 Alpha  occ. eigenvalues --   -0.35693  -0.34053  -0.32284  -0.25052
 Alpha virt. eigenvalues --   -0.02741   0.03270   0.05889   0.06502   0.07799
 Alpha virt. eigenvalues --    0.10613   0.12125   0.15153   0.17141   0.17559
 Alpha virt. eigenvalues --    0.19016   0.20769   0.21188   0.21852   0.22177
 Alpha virt. eigenvalues --    0.23385   0.23556   0.25508   0.29809   0.32525
 Alpha virt. eigenvalues --    0.33436   0.34282   0.35036   0.35852   0.36339
 Alpha virt. eigenvalues --    0.37225   0.38920   0.40266   0.41146   0.44978
 Alpha virt. eigenvalues --    0.45814   0.46283   0.47120   0.49414   0.50115
 Alpha virt. eigenvalues --    0.51341   0.52128   0.52686   0.53200   0.53923
 Alpha virt. eigenvalues --    0.55213   0.55438   0.55750   0.57632   0.58567
 Alpha virt. eigenvalues --    0.59695   0.59782   0.60172   0.61364   0.62353
 Alpha virt. eigenvalues --    0.64069   0.65464   0.65934   0.67663   0.67954
 Alpha virt. eigenvalues --    0.69489   0.69595   0.71324   0.72269   0.73104
 Alpha virt. eigenvalues --    0.73506   0.74191   0.74304   0.74916   0.76520
 Alpha virt. eigenvalues --    0.77246   0.77495   0.78223   0.78746   0.79055
 Alpha virt. eigenvalues --    0.79514   0.80496   0.81003   0.82572   0.82972
 Alpha virt. eigenvalues --    0.83689   0.85685   0.86633   0.87354   0.88479
 Alpha virt. eigenvalues --    0.88825   0.89455   0.90769   0.91614   0.92165
 Alpha virt. eigenvalues --    0.94057   0.94246   0.95647   0.95992   0.98994
 Alpha virt. eigenvalues --    1.02049   1.02729   1.03026   1.05178   1.06851
 Alpha virt. eigenvalues --    1.10088   1.11424   1.13665   1.15860   1.19002
 Alpha virt. eigenvalues --    1.21764   1.23084   1.24415   1.24953   1.28298
 Alpha virt. eigenvalues --    1.30199   1.31375   1.31714   1.32474   1.32674
 Alpha virt. eigenvalues --    1.34694   1.35384   1.35624   1.36586   1.37023
 Alpha virt. eigenvalues --    1.38992   1.39328   1.45582   1.48481   1.50399
 Alpha virt. eigenvalues --    1.55931   1.58071   1.58401   1.59298   1.63182
 Alpha virt. eigenvalues --    1.67488   1.72793   1.74566   1.76238   1.77073
 Alpha virt. eigenvalues --    1.79135   1.79650   1.80208   1.82106   1.83156
 Alpha virt. eigenvalues --    1.83539   1.84194   1.84776   1.85140   1.86897
 Alpha virt. eigenvalues --    1.88593   1.89066   1.89916   1.92326   1.95492
 Alpha virt. eigenvalues --    1.97930   1.98271   2.00151   2.01062   2.01623
 Alpha virt. eigenvalues --    2.03249   2.04012   2.06323   2.07537   2.09929
 Alpha virt. eigenvalues --    2.11414   2.12731   2.15906   2.16634   2.18466
 Alpha virt. eigenvalues --    2.20569   2.21190   2.22732   2.25088   2.29055
 Alpha virt. eigenvalues --    2.30095   2.31346   2.33732   2.34044   2.34203
 Alpha virt. eigenvalues --    2.36811   2.37916   2.38446   2.39317   2.40054
 Alpha virt. eigenvalues --    2.42125   2.46359   2.50085   2.52096   2.58256
 Alpha virt. eigenvalues --    2.63094   2.64581   2.68301   2.68407   2.68877
 Alpha virt. eigenvalues --    2.70582   2.72879   2.75889   2.78331   2.81065
 Alpha virt. eigenvalues --    2.81486   2.81934   2.87841   2.89433   2.91381
 Alpha virt. eigenvalues --    2.92438   2.95267   3.04885   3.08361   3.13234
 Alpha virt. eigenvalues --    3.15611   3.20219   3.24108   3.39995   3.46177
 Alpha virt. eigenvalues --    3.60556   3.66536   3.88260
          Condensed to atoms (all electrons):
               1          2          3          4          5          6
     1  C    5.214812   0.179680  -0.060368   0.084863  -0.138009   0.093106
     2  C    0.179680   5.303435   0.259767   0.336595   0.086555  -0.149042
     3  Cl  -0.060368   0.259767  16.904877  -0.056563   0.002558   0.000702
     4  C    0.084863   0.336595  -0.056563   4.978877   0.311134   0.075364
     5  C   -0.138009   0.086555   0.002558   0.311134   5.043750   0.277663
     6  C    0.093106  -0.149042   0.000702   0.075364   0.277663   5.096565
     7  C    0.359703   0.037712   0.001422  -0.102229   0.074786   0.279772
     8  N    0.352509  -0.063658  -0.005623   0.003770  -0.000215   0.007577
     9  N   -0.084762  -0.007659  -0.001379  -0.000941   0.000049  -0.000413
    10  C   -0.001028  -0.000290  -0.007402  -0.000021  -0.000006   0.000005
    11  C    0.000618   0.000337   0.000986   0.000019   0.000001   0.000000
    12  Cl   0.004460   0.000546  -0.000005  -0.000071   0.000003  -0.000023
    13  C   -0.000010  -0.000005  -0.000477  -0.000000   0.000000  -0.000000
    14  C   -0.000003   0.000001   0.000142   0.000000  -0.000000   0.000000
    15  C    0.000013  -0.000001  -0.000948  -0.000000   0.000000   0.000000
    16  C    0.000544   0.000107   0.010231   0.000015  -0.000000  -0.000000
    17  H    0.016049  -0.062919   0.002435   0.439478  -0.057479   0.012367
    18  H   -0.001769   0.013803  -0.000114  -0.059659   0.444948  -0.063381
    19  H    0.012796  -0.001363   0.000007   0.011893  -0.063751   0.449358
    20  H   -0.061861   0.021432  -0.000047  -0.003066   0.012468  -0.068849
    21  H   -0.000001  -0.000000  -0.000001   0.000000  -0.000000   0.000000
    22  H    0.000000  -0.000000   0.000000  -0.000000  -0.000000  -0.000000
    23  H   -0.000000   0.000000  -0.000014  -0.000000  -0.000000   0.000000
    24  H   -0.000085  -0.000049   0.001977   0.000003  -0.000000   0.000000
               7          8          9         10         11         12
     1  C    0.359703   0.352509  -0.084762  -0.001028   0.000618   0.004460
     2  C    0.037712  -0.063658  -0.007659  -0.000290   0.000337   0.000546
     3  Cl   0.001422  -0.005623  -0.001379  -0.007402   0.000986  -0.000005
     4  C   -0.102229   0.003770  -0.000941  -0.000021   0.000019  -0.000071
     5  C    0.074786  -0.000215   0.000049  -0.000006   0.000001   0.000003
     6  C    0.279772   0.007577  -0.000413   0.000005   0.000000  -0.000023
     7  C    5.035009  -0.074505   0.006999  -0.000273  -0.000059  -0.000509
     8  N   -0.074505   6.542579   0.303919  -0.057298   0.003642  -0.002098
     9  N    0.006999   0.303919   6.616612   0.366556  -0.072487  -0.001768
    10  C   -0.000273  -0.057298   0.366556   5.102686   0.239977  -0.067041
    11  C   -0.000059   0.003642  -0.072487   0.239977   5.255215   0.242515
    12  Cl  -0.000509  -0.002098  -0.001768  -0.067041   0.242515  16.962965
    13  C   -0.000001  -0.000043   0.005859   0.081959   0.366751  -0.041660
    14  C    0.000000  -0.000005  -0.000005  -0.134169   0.075715   0.002279
    15  C    0.000000  -0.000020   0.008100   0.102785  -0.159540   0.000654
    16  C    0.000007   0.003292  -0.066535   0.293519   0.092993   0.001765
    17  H   -0.002052  -0.000080   0.000040   0.000010  -0.000002   0.000000
    18  H    0.012372   0.000005   0.000000   0.000000  -0.000000   0.000000
    19  H   -0.062124  -0.000111   0.000005  -0.000000  -0.000000   0.000000
    20  H    0.435694   0.004577   0.000312   0.000008  -0.000006   0.000050
    21  H    0.000000   0.000001  -0.000073   0.016836  -0.066819   0.000431
    22  H   -0.000000  -0.000000   0.000004  -0.001912   0.014748  -0.000100
    23  H   -0.000000  -0.000000  -0.000117   0.014391  -0.001143   0.000006
    24  H    0.000002   0.000976  -0.010383  -0.076024   0.016206  -0.000086
              13         14         15         16         17         18
     1  C   -0.000010  -0.000003   0.000013   0.000544   0.016049  -0.001769
     2  C   -0.000005   0.000001  -0.000001   0.000107  -0.062919   0.013803
     3  Cl  -0.000477   0.000142  -0.000948   0.010231   0.002435  -0.000114
     4  C   -0.000000   0.000000  -0.000000   0.000015   0.439478  -0.059659
     5  C    0.000000  -0.000000   0.000000  -0.000000  -0.057479   0.444948
     6  C   -0.000000   0.000000   0.000000  -0.000000   0.012367  -0.063381
     7  C   -0.000001   0.000000   0.000000   0.000007  -0.002052   0.012372
     8  N   -0.000043  -0.000005  -0.000020   0.003292  -0.000080   0.000005
     9  N    0.005859  -0.000005   0.008100  -0.066535   0.000040   0.000000
    10  C    0.081959  -0.134169   0.102785   0.293519   0.000010   0.000000
    11  C    0.366751   0.075715  -0.159540   0.092993  -0.000002  -0.000000
    12  Cl  -0.041660   0.002279   0.000654   0.001765   0.000000   0.000000
    13  C    4.941871   0.310927   0.086793  -0.116800   0.000000  -0.000000
    14  C    0.310927   5.093361   0.294118   0.056775   0.000000   0.000000
    15  C    0.086793   0.294118   5.030788   0.317306   0.000000  -0.000000
    16  C   -0.116800   0.056775   0.317306   5.073474  -0.000003   0.000000
    17  H    0.000000   0.000000   0.000000  -0.000003   0.633567  -0.011069
    18  H   -0.000000   0.000000  -0.000000   0.000000  -0.011069   0.635155
    19  H    0.000000  -0.000000   0.000000  -0.000000  -0.000177  -0.010304
    20  H    0.000000  -0.000000  -0.000000   0.000000   0.000028  -0.000180
    21  H    0.440887  -0.060006   0.012470  -0.001706  -0.000000  -0.000000
    22  H   -0.065085   0.450320  -0.067380   0.013166  -0.000000   0.000000
    23  H    0.012319  -0.065331   0.441287  -0.060423   0.000000  -0.000000
    24  H   -0.002530   0.013921  -0.064046   0.460624  -0.000000   0.000000
              19         20         21         22         23         24
     1  C    0.012796  -0.061861  -0.000001   0.000000  -0.000000  -0.000085
     2  C   -0.001363   0.021432  -0.000000  -0.000000   0.000000  -0.000049
     3  Cl   0.000007  -0.000047  -0.000001   0.000000  -0.000014   0.001977
     4  C    0.011893  -0.003066   0.000000  -0.000000  -0.000000   0.000003
     5  C   -0.063751   0.012468  -0.000000  -0.000000  -0.000000  -0.000000
     6  C    0.449358  -0.068849   0.000000  -0.000000   0.000000   0.000000
     7  C   -0.062124   0.435694   0.000000  -0.000000  -0.000000   0.000002
     8  N   -0.000111   0.004577   0.000001  -0.000000  -0.000000   0.000976
     9  N    0.000005   0.000312  -0.000073   0.000004  -0.000117  -0.010383
    10  C   -0.000000   0.000008   0.016836  -0.001912   0.014391  -0.076024
    11  C   -0.000000  -0.000006  -0.066819   0.014748  -0.001143   0.016206
    12  Cl   0.000000   0.000050   0.000431  -0.000100   0.000006  -0.000086
    13  C    0.000000   0.000000   0.440887  -0.065085   0.012319  -0.002530
    14  C   -0.000000  -0.000000  -0.060006   0.450320  -0.065331   0.013921
    15  C    0.000000  -0.000000   0.012470  -0.067380   0.441287  -0.064046
    16  C   -0.000000   0.000000  -0.001706   0.013166  -0.060423   0.460624
    17  H   -0.000177   0.000028  -0.000000  -0.000000   0.000000  -0.000000
    18  H   -0.010304  -0.000180  -0.000000   0.000000  -0.000000   0.000000
    19  H    0.635918  -0.009730   0.000000  -0.000000   0.000000  -0.000000
    20  H   -0.009730   0.636292  -0.000000   0.000000   0.000000  -0.000001
    21  H    0.000000  -0.000000   0.650802  -0.011529  -0.000233   0.000011
    22  H   -0.000000   0.000000  -0.011529   0.660784  -0.011037  -0.000190
    23  H    0.000000   0.000000  -0.000233  -0.011037   0.658403  -0.012225
    24  H   -0.000000  -0.000001   0.000011  -0.000190  -0.012225   0.662902
 Mulliken charges:
               1
     1  C    0.028743
     2  C    0.045016
     3  Cl  -0.052164
     4  C   -0.019458
     5  C    0.005545
     6  C   -0.010771
     7  C   -0.001727
     8  N   -0.019191
     9  N   -0.061933
    10  C    0.126732
    11  C   -0.009666
    12  Cl  -0.102316
    13  C   -0.020754
    14  C   -0.038040
    15  C   -0.002379
    16  C   -0.078351
    17  H    0.029806
    18  H    0.040192
    19  H    0.037584
    20  H    0.032878
    21  H    0.018931
    22  H    0.018209
    23  H    0.024117
    24  H    0.008996
 Sum of Mulliken charges =  -0.00000
 Mulliken charges with hydrogens summed into heavy atoms:
               1
     1  C    0.028743
     2  C    0.045016
     3  Cl  -0.052164
     4  C    0.010348
     5  C    0.045738
     6  C    0.026813
     7  C    0.031151
     8  N   -0.019191
     9  N   -0.061933
    10  C    0.126732
    11  C   -0.009666
    12  Cl  -0.102316
    13  C   -0.001823
    14  C   -0.019831
    15  C    0.021738
    16  C   -0.069355
 APT charges:
               1
     1  C   -0.141202
     2  C    0.274236
     3  Cl  -0.206238
     4  C   -0.165602
     5  C    0.035994
     6  C   -0.082505
     7  C    0.021165
     8  N    0.167661
     9  N   -0.670665
    10  C    0.836049
    11  C    0.043381
    12  Cl  -0.263628
    13  C    0.120063
    14  C   -0.305878
    15  C    0.157521
    16  C   -0.234302
    17  H    0.061387
    18  H    0.046358
    19  H    0.044403
    20  H    0.085177
    21  H    0.057609
    22  H    0.034598
    23  H    0.030370
    24  H    0.054044
 Sum of APT charges =  -0.00000
 APT charges with hydrogens summed into heavy atoms:
               1
     1  C   -0.141202
     2  C    0.274236
     3  Cl  -0.206238
     4  C   -0.104215
     5  C    0.082353
     6  C   -0.038102
     7  C    0.106342
     8  N    0.167661
     9  N   -0.670665
    10  C    0.836049
    11  C    0.043381
    12  Cl  -0.263628
    13  C    0.177673
    14  C   -0.271279
    15  C    0.187891
    16  C   -0.180257
 Electronic spatial extent (au):  <R**2>=           5267.1654
 Charge=             -0.0000 electrons
 Dipole moment (field-independent basis, Debye):
    X=             -2.3065    Y=              2.0363    Z=              0.6766  Tot=              3.1503
 Quadrupole moment (field-independent basis, Debye-Ang):
   XX=            -89.7968   YY=            -97.6830   ZZ=           -104.3473
   XY=             -9.2641   XZ=              4.6844   YZ=             -0.6931
 Traceless Quadrupole moment (field-independent basis, Debye-Ang):
   XX=              7.4789   YY=             -0.4073   ZZ=             -7.0716
   XY=             -9.2641   XZ=              4.6844   YZ=             -0.6931
 Octapole moment (field-independent basis, Debye-Ang**2):
  XXX=            -83.0984  YYY=           -349.6313  ZZZ=             51.6006  XYY=            -69.6763
  XXY=           -102.8563  XXZ=             -3.5059  XZZ=            -14.2964  YZZ=           -141.2781
  YYZ=             16.3697  XYZ=              2.9608
 Hexadecapole moment (field-independent basis, Debye-Ang**3):
 XXXX=          -3413.5890 YYYY=          -2096.9832 ZZZZ=           -998.0197 XXXY=            520.8435
 XXXZ=             74.4476 YYYX=            478.9881 YYYZ=            -28.5125 ZZZX=             17.9598
 ZZZY=            -57.3657 XXYY=           -934.3359 XXZZ=           -764.4385 YYZZ=           -586.3579
 XXYZ=            -61.3119 YYXZ=              9.8341 ZZXY=            227.2625
 N-N= 1.226723403349D+03 E-N=-5.963578181180D+03  KE= 1.483120757457D+03
  Exact polarizability:     250.638     -44.851     128.959      25.309       0.134     130.289
 Approx polarizability:     255.641     -21.395     151.286      33.187      -1.200     160.859
 No NMR shielding tensors so no spin-rotation constants.
 Leave Link  601 at Fri Mar  6 17:47:53 2026, MaxMem=   104857600 cpu:               0.1 elap:               0.2
 (Enter /prod/precompiled/gaussian/16c2/g16/l701.exe)
 ... and contract with generalized density number  0.
 Compute integral second derivatives.
 R6Disp: Adding Grimme-D2 dispersion energy 2nd derivatives to the Hessian.
   1 Symmetry operations used in ECPInt.
 ECPInt:  NShTT=    7750 NPrTT=   30142 LenC2=    7118 LenP2D=   19310.
 LDataN:  DoStor=T MaxTD1= 6 Len=  172
 Leave Link  701 at Fri Mar  6 17:47:54 2026, MaxMem=   104857600 cpu:               0.2 elap:               0.3
 (Enter /prod/precompiled/gaussian/16c2/g16/l702.exe)
 L702 exits ... SP integral derivatives will be done elsewhere.
 Leave Link  702 at Fri Mar  6 17:47:54 2026, MaxMem=   104857600 cpu:               0.0 elap:               0.1
 (Enter /prod/precompiled/gaussian/16c2/g16/l703.exe)
 Integral derivatives from FoFJK, PRISM(SPDF).
 Compute integral second derivatives, UseDBF=F ICtDFT=           0.
 Calling FoFJK, ICntrl=    100127 FMM=F ISym2X=0 I1Cent= 0 IOpClX= 0 NMat=1 NMatS=1 NMatT=0.
 FoFJK:  IHMeth= 1 ICntrl=  100127 DoSepK=T KAlg= 0 I1Cent=           0 FoldK=F
 IRaf=         1 NMat=       1 IRICut=       1 DoRegI=T DoRafI=F ISym2E= 0 IDoP0=0 IntGTp=1.
 FoFCou: FMM=F IPFlag=           0 FMFlag=      100000 FMFlg1=         800
         NFxFlg=           0 DoJE=F BraDBF=F KetDBF=F FulRan=T
         wScrn=  0.000000 ICntrl=    100527 IOpCl=  0 I1Cent=           0 NGrid=           0
         NMat0=    1 NMatS0=      1 NMatT0=    0 NMatD0=    1 NMtDS0=    0 NMtDT0=    0
 Symmetry not used in FoFCou.
 Leave Link  703 at Fri Mar  6 17:55:01 2026, MaxMem=   104857600 cpu:             424.2 elap:             426.5
 (Enter /prod/precompiled/gaussian/16c2/g16/l716.exe)
 Dipole        =-9.07466189D-01 8.01128790D-01 2.66188937D-01
 Polarizability= 2.50638042D+02-4.48506244D+01 1.28958968D+02
                 2.53086105D+01 1.34168070D-01 1.30288682D+02
 Full mass-weighted force constant matrix:
 Low frequencies --- -390.2252   -2.3251   -0.0028   -0.0017    0.0025    3.6181
 Low frequencies ---    7.4222   14.4040   28.2957
 ******    1 imaginary frequencies (negative Signs) ****** 
 Diagonal vibrational polarizability:
       57.0304132      32.1713106      53.3744507
 Harmonic frequencies (cm**-1), IR intensities (KM/Mole), Raman scattering
 activities (A**4/AMU), depolarization ratios for plane and unpolarized
 incident light, reduced masses (AMU), force constants (mDyne/A),
 and normal coordinates:
                           1         2         3         4         5
                           A         A         A         A         A
       Frequencies ---  -390.2252   14.2929   28.2944   75.1464  106.4708
    Reduced masses ---    13.3194   10.1412    7.8639    5.7626    6.7532
   Force constants ---     1.1950    0.0012    0.0037    0.0192    0.0451
    IR Intensities ---     8.7507    0.2423    2.0340    0.2341    0.1010
 Coord Atom Element:
   1     1     6         -0.10516   0.02458   0.02582  -0.03400  -0.05374
   2     1     6         -0.10343   0.03370  -0.04757  -0.05744  -0.02143
   3     1     6          0.06879  -0.01209   0.04304   0.04326   0.17480
   1     2     6         -0.02715  -0.02676   0.02974   0.07415  -0.00967
   2     2     6         -0.07833   0.00076  -0.01874  -0.07163   0.02449
   3     2     6          0.01530   0.11369  -0.03302  -0.01931   0.01555
   1     3    17         -0.01574  -0.12973  -0.02528   0.08371  -0.06694
   2     3    17          0.00837  -0.07246   0.00264  -0.15069   0.02694
   3     3    17          0.00582   0.31513   0.06569  -0.02035   0.11945
   1     4     6          0.00497  -0.00196   0.07367   0.17559   0.06171
   2     4     6         -0.05479   0.01422  -0.00623  -0.01081   0.04944
   3     4     6         -0.01165   0.08329  -0.19001  -0.08009  -0.19490
   1     5     6         -0.00033   0.07592   0.11474   0.16113   0.05149
   2     5     6         -0.02021   0.05781  -0.02531   0.05996   0.00686
   3     5     6         -0.00883  -0.07694  -0.27065  -0.05900  -0.17326
   1     6     6         -0.01995   0.12583   0.10831   0.04272  -0.04324
   2     6     6         -0.00834   0.08736  -0.05512   0.07117  -0.06098
   3     6     6         -0.00356  -0.20200  -0.18880   0.03311   0.09516
   1     7     6         -0.05881   0.09499   0.06218  -0.05022  -0.08846
   2     7     6         -0.04186   0.07070  -0.06658   0.01203  -0.07161
   3     7     6          0.01696  -0.16503  -0.03131   0.07764   0.25732
   1     8     7          0.06320   0.02375   0.01383  -0.06402  -0.04061
   2     8     7         -0.08907   0.03408  -0.04770  -0.07691  -0.01477
   3     8     7         -0.01454   0.01907   0.17245   0.01894   0.19808
   1     9     7          0.09001   0.02436   0.01657  -0.05868  -0.02544
   2     9     7          0.88826   0.04934  -0.02098  -0.01970  -0.02261
   3     9     7         -0.02872   0.00520   0.15583  -0.03799  -0.07770
   1    10     6          0.01102   0.02558   0.01466  -0.06325  -0.01858
   2    10     6         -0.26647   0.06628  -0.03802  -0.06050   0.04782
   3    10     6         -0.03200  -0.02666   0.07287  -0.02716  -0.10066
   1    11     6          0.02486  -0.01212  -0.06813  -0.04479   0.03650
   2    11     6         -0.14667  -0.05562   0.05356   0.03453   0.00771
   3    11     6         -0.02793  -0.06864   0.03635  -0.00037  -0.07184
   1    12    17          0.00769  -0.05662  -0.17204  -0.04040   0.15767
   2    12    17         -0.00745  -0.22064   0.18390  -0.04556   0.05295
   3    12    17          0.00777  -0.07730   0.12956  -0.02043  -0.13866
   1    13     6          0.01320  -0.01203  -0.07073  -0.03705   0.03787
   2    13     6         -0.03022  -0.04210   0.04097   0.22777  -0.08334
   3    13     6         -0.00431  -0.10220  -0.06786   0.05322  -0.01453
   1    14     6          0.00833   0.02503   0.00901  -0.05429  -0.01584
   2    14     6         -0.00429   0.07997  -0.03669   0.29931  -0.10119
   3    14     6          0.01599  -0.10225  -0.13060   0.07853   0.01143
   1    15     6          0.00436   0.06146   0.09335  -0.07899  -0.06849
   2    15     6         -0.04311   0.19016  -0.10780   0.14022  -0.01526
   3    15     6         -0.00356  -0.06625  -0.09119   0.04142  -0.00604
   1    16     6         -0.01094   0.06256   0.09559  -0.08553  -0.06445
   2    16     6         -0.13738   0.18781  -0.11893  -0.04855   0.05486
   3    16     6         -0.00975  -0.02699   0.00624  -0.01228  -0.06554
   1    17     1          0.04047  -0.04559   0.07435   0.26366   0.11188
   2    17     1         -0.06052  -0.01137   0.01860  -0.02006   0.09799
   3    17     1         -0.03072   0.18482  -0.24941  -0.14138  -0.35689
   1    18     1          0.02629   0.09454   0.15025   0.24183   0.10784
   2    18     1         -0.00453   0.06736  -0.01532   0.10760   0.02596
   3    18     1         -0.02662  -0.10223  -0.39731  -0.11150  -0.34352
   1    19     1         -0.00750   0.18431   0.13902   0.02810  -0.06868
   2    19     1          0.01447   0.12175  -0.06816   0.12802  -0.09955
   3    19     1         -0.03192  -0.32594  -0.25024   0.05623   0.15184
   1    20     1         -0.08784   0.12444   0.05649  -0.13331  -0.13757
   2    20     1         -0.01855   0.09225  -0.08679   0.02547  -0.11199
   3    20     1         -0.02140  -0.25501   0.03118   0.12214   0.41994
   1    21     1          0.02386  -0.04206  -0.13557  -0.01720   0.08078
   2    21     1          0.03330  -0.13408   0.10379   0.32408  -0.13422
   3    21     1          0.01088  -0.13193  -0.09333   0.07816   0.00093
   1    22     1          0.01111   0.02459   0.00729  -0.04759  -0.01755
   2    22     1          0.07066   0.08659  -0.03889   0.46189  -0.17322
   3    22     1          0.03388  -0.13086  -0.20889   0.12271   0.04925
   1    23     1          0.00399   0.08988   0.15955  -0.09316  -0.11500
   2    23     1          0.01550   0.28356  -0.16640   0.17026  -0.01536
   3    23     1          0.00734  -0.06621  -0.14065   0.05512   0.02118
   1    24     1         -0.00682   0.09160   0.15980  -0.10548  -0.10973
   2    24     1         -0.05279   0.27677  -0.18703  -0.14300   0.09445
   3    24     1          0.00409   0.00246   0.03350  -0.03752  -0.08571
                           6         7         8         9        10
                           A         A         A         A         A
       Frequencies ---   136.1399  176.2762  224.9092  239.5979  280.1474
    Reduced masses ---     5.3369    6.4356    9.1503    6.6984    6.3529
   Force constants ---     0.0583    0.1178    0.2727    0.2266    0.2938
    IR Intensities ---     0.5812    3.4096    1.1307    2.1129    5.5422
 Coord Atom Element:
   1     1     6         -0.02875  -0.02592   0.12664   0.00472   0.13319
   2     1     6         -0.05053  -0.03893  -0.02777  -0.06505   0.08115
   3     1     6         -0.03755   0.15427  -0.05184   0.08618  -0.16526
   1     2     6          0.02302  -0.04680   0.13090   0.03734   0.14241
   2     2     6         -0.07365  -0.04376  -0.01686  -0.07532   0.08361
   3     2     6         -0.03485   0.17849  -0.02435   0.10304  -0.20809
   1     3    17          0.03501   0.10276   0.04412   0.08883   0.03356
   2     3    17         -0.15281   0.05684   0.23391   0.06692  -0.07288
   3     3    17         -0.04429  -0.09487   0.14049   0.02540   0.05251
   1     4     6          0.06797  -0.09682   0.07482   0.03451   0.04514
   2     4     6         -0.04444  -0.07157  -0.05822  -0.09120   0.02693
   3     4     6         -0.01542   0.23075  -0.04949   0.04127  -0.12013
   1     5     6          0.05124   0.01350   0.03963   0.08248  -0.09036
   2     5     6         -0.00279  -0.04713  -0.09359  -0.08716  -0.11675
   3     5     6          0.01337   0.00936   0.02756  -0.06010   0.15234
   1     6     6         -0.00632   0.14914   0.03570   0.06492  -0.01006
   2     6     6          0.01485  -0.00247  -0.10128  -0.08087  -0.11783
   3     6     6          0.02498  -0.23921   0.06781  -0.04776   0.06795
   1     7     6         -0.04152   0.08845   0.10750   0.02908   0.15392
   2     7     6         -0.01487  -0.02116  -0.05012  -0.08359  -0.02493
   3     7     6         -0.00852  -0.08369   0.00076   0.05226  -0.16888
   1     8     7         -0.00605  -0.05923   0.02571   0.03406   0.02540
   2     8     7         -0.03358  -0.05208  -0.07257  -0.02800   0.07805
   3     8     7         -0.05161   0.29614  -0.21635  -0.17684   0.29004
   1     9     7         -0.00579  -0.04734   0.00785   0.02325   0.02693
   2     9     7          0.05302  -0.01770  -0.10745   0.08228   0.10071
   3     9     7         -0.00511   0.01079  -0.17133  -0.12123   0.03859
   1    10     6         -0.00769  -0.05402  -0.02031   0.00528  -0.00319
   2    10     6          0.08310  -0.04296  -0.21398   0.24105   0.07438
   3    10     6          0.02776  -0.05567  -0.09737  -0.02034  -0.03641
   1    11     6         -0.01580  -0.04061  -0.01306   0.01705  -0.02280
   2    11     6         -0.04759  -0.04971  -0.25167   0.27602   0.09105
   3    11     6          0.00444  -0.04679  -0.08956   0.00298  -0.04148
   1    12    17         -0.02572   0.04091  -0.10735  -0.10971  -0.05121
   2    12    17          0.12651   0.05831   0.08700  -0.07108  -0.00053
   3    12    17          0.04706  -0.07945   0.02999  -0.00918  -0.07176
   1    13     6         -0.02438  -0.03822  -0.01237   0.01009  -0.02452
   2    13     6         -0.21579  -0.05616  -0.15405   0.14956   0.01702
   3    13     6         -0.02594  -0.00229  -0.00973   0.04960   0.02393
   1    14     6         -0.02173  -0.06721  -0.07672  -0.07436  -0.09163
   2    14     6         -0.13178   0.02043   0.09614  -0.16725  -0.02405
   3    14     6         -0.01101   0.02808   0.08656   0.05098   0.06464
   1    15     6         -0.00783  -0.08763  -0.11733  -0.11671  -0.10644
   2    15     6          0.19913   0.07889   0.17828  -0.16800  -0.02827
   3    15     6          0.04219   0.02485   0.07542   0.02894   0.05831
   1    16     6         -0.00456  -0.08458  -0.11936  -0.09979  -0.09171
   2    16     6          0.31458   0.01539  -0.04838   0.16687  -0.00403
   3    16     6          0.06746  -0.02555  -0.01782   0.02005  -0.00261
   1    17     1          0.10998  -0.16892   0.04596   0.01732  -0.03062
   2    17     1         -0.05928  -0.08692  -0.03946  -0.07469   0.04961
   3    17     1         -0.02023   0.33491  -0.06678   0.01819  -0.10170
   1    18     1          0.08059   0.01120   0.01239   0.12977  -0.26614
   2    18     1          0.01809  -0.05174  -0.10718  -0.06603  -0.20460
   3    18     1          0.02788  -0.01834   0.07216  -0.15311   0.41767
   1    19     1         -0.02186   0.27300   0.00027   0.10323  -0.09305
   2    19     1          0.05419   0.03635  -0.14318  -0.06280  -0.19086
   3    19     1          0.05210  -0.49753   0.14659  -0.12733   0.24695
   1    20     1         -0.07956   0.14004   0.14992   0.07354   0.21582
   2    20     1          0.00065  -0.00980  -0.06860  -0.09427  -0.05525
   3    20     1         -0.01461  -0.16744   0.01293   0.03984  -0.14252
   1    21     1         -0.02988  -0.00870   0.05319   0.07724   0.04694
   2    21     1         -0.37652  -0.08008  -0.17009   0.14420  -0.01670
   3    21     1         -0.05273   0.01006   0.02278   0.08460   0.05716
   1    22     1         -0.02696  -0.06570  -0.06943  -0.08249  -0.09256
   2    22     1         -0.26573   0.04542   0.25281  -0.40520  -0.07272
   3    22     1         -0.03231   0.05654   0.16915   0.06815   0.09336
   1    23     1          0.00016  -0.10662  -0.14052  -0.15834  -0.12820
   2    23     1          0.36167   0.15830   0.42340  -0.40503  -0.08566
   3    23     1          0.06667   0.04994   0.13286   0.01080   0.06021
   1    24     1          0.00428  -0.11717  -0.18212  -0.16808  -0.17112
   2    24     1          0.54919   0.04810   0.04781   0.17463  -0.05430
   3    24     1          0.10629  -0.03963  -0.04094  -0.01913  -0.05617
                          11        12        13        14        15
                           A         A         A         A         A
       Frequencies ---   289.4027  338.8011  399.8090  429.9033  463.4623
    Reduced masses ---     9.0535    6.7722   11.2098    3.3771    4.4624
   Force constants ---     0.4468    0.4580    1.0557    0.3677    0.5647
    IR Intensities ---     4.2133   14.6284    1.8078    3.6896    1.3880
 Coord Atom Element:
   1     1     6         -0.01169  -0.06290  -0.07299  -0.02070   0.11969
   2     1     6         -0.10710  -0.17935   0.07342  -0.00508   0.02879
   3     1     6         -0.08970  -0.07743   0.00739  -0.05820  -0.13665
   1     2     6          0.09059   0.00714   0.08203   0.01540   0.09293
   2     2     6         -0.13593  -0.18287   0.04311  -0.03756   0.04335
   3     2     6         -0.05835  -0.12718  -0.00568  -0.00554  -0.18313
   1     3    17          0.02890  -0.12486   0.19126   0.03384  -0.10627
   2     3    17          0.12550   0.12417   0.00473   0.01204  -0.00331
   3     3    17          0.05573  -0.02269   0.10662   0.01823  -0.03602
   1     4     6          0.12435   0.14113  -0.02986  -0.00617  -0.01239
   2     4     6         -0.12295  -0.09755  -0.02901  -0.05421  -0.01106
   3     4     6         -0.03422  -0.01195  -0.10053   0.03382   0.19672
   1     5     6          0.07206   0.08099  -0.11491   0.02396   0.12191
   2     5     6         -0.04542   0.09317  -0.11372  -0.01491  -0.01005
   3     5     6          0.08334   0.16614   0.00461  -0.03318  -0.02686
   1     6     6         -0.00733   0.02501  -0.13033  -0.03614   0.15772
   2     6     6          0.00717   0.16163  -0.06795   0.00226  -0.02762
   3     6     6          0.04056   0.04794  -0.08130  -0.01855  -0.02510
   1     7     6         -0.01764  -0.06991  -0.02926  -0.06675   0.00639
   2     7     6         -0.01394   0.04999   0.01255  -0.01377  -0.08487
   3     7     6         -0.09707  -0.12778  -0.09986   0.01453   0.19325
   1     8     7         -0.07523  -0.04773  -0.19905  -0.01203   0.02783
   2     8     7         -0.11766  -0.20815   0.03018   0.02765   0.04794
   3     8     7         -0.14204   0.22697   0.04905  -0.01123   0.01295
   1     9     7         -0.09647  -0.00773  -0.17953  -0.00712   0.01499
   2     9     7          0.02635  -0.04186   0.03664   0.03567   0.02825
   3     9     7          0.33945  -0.11776  -0.20236   0.00476  -0.02887
   1    10     6         -0.11358   0.02429  -0.16185  -0.00146  -0.02127
   2    10     6          0.00775   0.02965  -0.02148   0.15387  -0.01218
   3    10     6          0.18704  -0.07189  -0.01928   0.01487   0.01028
   1    11     6         -0.22494   0.10390   0.00198   0.01708  -0.03733
   2    11     6          0.04807   0.08609  -0.02270   0.22085  -0.01020
   3    11     6          0.09678  -0.00438   0.12344   0.04117   0.02181
   1    12    17          0.15224  -0.01212   0.18578   0.00623   0.05997
   2    12    17          0.01415  -0.02600  -0.06069  -0.01670  -0.01475
   3    12    17         -0.16812   0.08059   0.26872   0.01729   0.06114
   1    13     6         -0.23803   0.11214  -0.02863   0.00002  -0.06756
   2    13     6          0.04949   0.03595   0.09416  -0.21166   0.03812
   3    13     6          0.01332  -0.01418  -0.11805  -0.04272  -0.06062
   1    14     6         -0.09389   0.06814   0.01365   0.00376  -0.09526
   2    14     6         -0.00847  -0.05722  -0.00223   0.06621   0.00529
   3    14     6         -0.10785  -0.00294  -0.21254   0.00307  -0.07144
   1    15     6          0.04147   0.00590  -0.06262  -0.00145  -0.08100
   2    15     6         -0.01735  -0.00542   0.01981   0.12596   0.00374
   3    15     6         -0.03642  -0.02961  -0.25651   0.01117  -0.06167
   1    16     6          0.04807   0.00132  -0.08109  -0.01051  -0.07000
   2    16     6          0.04035   0.05008   0.08665  -0.20892   0.01630
   3    16     6          0.10923  -0.06138  -0.08593  -0.04813   0.02146
   1    17     1          0.18501   0.31484  -0.13111  -0.02965  -0.15085
   2    17     1         -0.14862  -0.19520   0.04379  -0.06484  -0.10145
   3    17     1         -0.03285   0.04974  -0.17285   0.08052   0.53752
   1    18     1          0.10100   0.11443  -0.14905   0.06954   0.07489
   2    18     1         -0.01509   0.13384  -0.12261   0.01319  -0.04399
   3    18     1          0.19579   0.35524   0.12339  -0.05135  -0.04317
   1    19     1         -0.04364  -0.00495  -0.13863  -0.04227   0.16005
   2    19     1          0.06978   0.27616  -0.08645   0.03462  -0.01257
   3    19     1          0.10821   0.09408  -0.06253  -0.01036  -0.02874
   1    20     1         -0.04722  -0.25096   0.08969  -0.09586  -0.13182
   2    20     1          0.01882   0.14928  -0.03017  -0.02422  -0.15281
   3    20     1         -0.15984  -0.23327  -0.09731   0.07193   0.52733
   1    21     1         -0.35066   0.12735  -0.21754  -0.01774  -0.10693
   2    21     1          0.07118   0.03276   0.20849  -0.60632   0.08243
   3    21     1         -0.04289  -0.00673  -0.19962  -0.11054  -0.07338
   1    22     1         -0.09893   0.06645   0.01157   0.00332  -0.09638
   2    22     1         -0.03213  -0.14741  -0.04269   0.04317  -0.00376
   3    22     1         -0.25587   0.03916  -0.17863   0.00760  -0.05575
   1    23     1          0.13836  -0.03875  -0.04945  -0.00141  -0.03236
   2    23     1         -0.04872  -0.04235   0.00519   0.18158  -0.00086
   3    23     1         -0.09903  -0.01009  -0.26729   0.02097  -0.09198
   1    24     1          0.15268  -0.01025   0.07167  -0.02253  -0.06012
   2    24     1          0.06030   0.04909   0.17319  -0.56995   0.04403
   3    24     1          0.17307  -0.06827   0.01372  -0.10706   0.02993
                          16        17        18        19        20
                           A         A         A         A         A
       Frequencies ---   466.0809  516.8669  532.8874  562.4830  578.8699
    Reduced masses ---     5.1532    4.7394    4.2764    7.0849    7.7291
   Force constants ---     0.6596    0.7460    0.7155    1.3207    1.5260
    IR Intensities ---     0.3839    5.1474    8.4870    9.5835    1.1722
 Coord Atom Element:
   1     1     6          0.02815  -0.03800  -0.08043  -0.03812   0.03657
   2     1     6         -0.02039   0.00430  -0.02657   0.09077  -0.08461
   3     1     6          0.20555  -0.02589   0.20640  -0.02799   0.07041
   1     2     6         -0.08661  -0.01662   0.10935   0.01567   0.00026
   2     2     6          0.02736  -0.06094   0.07717   0.02170  -0.00540
   3     2     6          0.14475   0.06070  -0.19852   0.06603  -0.05916
   1     3    17         -0.12202  -0.02001  -0.01980  -0.05978   0.03324
   2     3    17         -0.02015   0.01029  -0.01132   0.00783  -0.01461
   3     3    17         -0.08202  -0.01784   0.01312  -0.03339   0.01981
   1     4     6          0.10699   0.06851   0.04524   0.11227  -0.08069
   2     4     6          0.12310  -0.04280   0.04533   0.03278  -0.01483
   3     4     6         -0.09954   0.01628  -0.07621   0.06729  -0.07656
   1     5     6          0.03239   0.09088  -0.09093   0.16638  -0.15375
[...]
 20,0.00007210,0.00020107,-0.00015360,-0.00025723,0.00020767,-0.0000975
 1,0.00004344,0.00049717,-0.00003164,0.00098410,0.00060311,0.00026204,-
 0.00103618,-0.00397701,0.00124491,-0.05151263,0.01105785,-0.04470206,-
 0.14610150,0.00568342,-0.04133013,0.05839739,0.00165315,-0.02441693,0.
 00107129,-0.00133354,0.00766713,-0.05218672,0.00788215,-0.03144774,-0.
 02908499,-0.01187457,0.07993808,-0.37850513,0.01422107,-0.02328279,0.7
 3900247,0.00046686,-0.00158128,-0.00151554,-0.00056605,-0.00045506,-0.
 00041997,0.00099881,0.00066351,0.00101208,0.00005613,0.00010831,0.0001
 4161,0.00003270,0.00012350,0.00005527,0.00004585,-0.00015054,0.0001153
 3,-0.00026926,0.00041343,-0.00002700,-0.00237248,0.00283831,0.00245015
 ,0.01046180,0.00551261,0.00031835,0.01245441,-0.06790937,0.03199933,-0
 .00407442,0.00639961,0.00862590,0.00033039,0.00354556,0.00115539,0.004
 78119,-0.00460187,0.00217250,-0.00344888,0.01133459,-0.00567132,0.0024
 4795,-0.05975815,0.01271505,-0.00833907,0.13178622,-0.00007669,0.00203
 783,-0.00113355,-0.00102815,-0.00049236,-0.00068836,0.00089359,-0.0000
 4109,-0.00011661,0.00029935,0.00010994,0.00043993,-0.00012859,-0.00008
 222,-0.00007202,-0.00018763,0.00015340,0.00000743,0.00036781,0.0004822
 4,0.00021741,-0.00404135,-0.00267515,-0.00110690,-0.02190773,0.0019623
 2,0.00665050,-0.08792678,0.03479425,-0.26213267,0.01359122,0.00840690,
 -0.03823754,0.00220135,0.00047353,-0.00023444,-0.01844443,0.00267495,-
 0.01642741,0.02563483,-0.00357953,0.02869275,0.04171208,0.00901591,-0.
 12352854,-0.05242875,-0.09020326,0.68291029,-0.00084063,0.00279699,-0.
 00264227,0.00732403,0.01706537,0.00564564,0.00007549,0.00052604,0.0017
 0081,-0.08666456,-0.08667149,-0.04388037,-0.00332219,-0.02421196,-0.00
 917667,-0.00307656,0.00121173,-0.00460903,-0.00079418,0.00065978,0.000
 20111,0.00044883,0.00102128,0.00045641,0.00000761,-0.00039077,-0.00013
 162,0.00020872,0.00000582,-0.00000997,-0.00006692,0.00001862,0.0000453
 5,0.00000761,-0.00000902,0.00001604,0.00001804,-0.00000710,-0.00000694
 ,-0.00004658,-0.00000759,0.00001177,0.00003630,-0.00000109,-0.00001283
 ,-0.00008870,0.00002221,-0.00005334,0.08723325,0.00433120,-0.00267022,
 -0.00019320,-0.01089953,-0.01609521,-0.00968535,-0.00104751,0.00084933
 ,0.00031688,-0.08451535,-0.27692003,-0.09568483,0.00264088,0.00414662,
 0.00133400,0.00084218,0.00173824,-0.00076324,0.00073277,0.00040245,0.0
 0060547,-0.00147466,-0.00063016,-0.00030861,0.00073518,0.00047976,0.00
 001164,-0.00062506,-0.00003294,-0.00003123,0.00018109,-0.00000079,-0.0
 0009613,-0.00000786,0.00000862,-0.00001469,-0.00006820,-0.00000202,-0.
 00002706,0.00007523,-0.00000443,0.00001597,-0.00003018,0.00002271,0.00
 002009,0.00013978,0.00002452,0.00009162,0.08940520,0.28833239,-0.00200
 680,-0.00025149,0.00483910,-0.00049160,0.00305306,0.00415147,0.0012279
 9,0.00119663,-0.00207134,-0.04398372,-0.09634792,-0.08137243,-0.002713
 04,-0.01175427,0.00022646,-0.00461629,-0.00077712,0.00445075,-0.000201
 81,0.00088820,-0.00083456,-0.00012509,0.00030521,0.00001787,0.00038423
 ,-0.00012993,0.00013600,-0.00013888,0.00000660,-0.00002703,0.00004553,
 -0.00001058,0.00004028,-0.00003095,0.00001665,-0.00004499,0.00000062,0
 .00000981,0.00000880,0.00002388,0.00000526,-0.00002122,-0.00003862,-0.
 00000788,-0.00000214,0.00004013,-0.00001640,0.00003012,0.05057187,0.10
 347048,0.07413932,-0.00051809,-0.00083475,-0.00010409,-0.00195990,-0.0
 0023541,-0.00463408,-0.00095215,0.00059427,-0.00030420,-0.00899102,0.0
 2389617,-0.00142305,-0.14314848,0.13335322,-0.02127108,0.01007850,-0.0
 1068134,0.00018371,0.00127985,-0.00204115,-0.00312423,-0.00014741,0.00
 000170,0.00032551,-0.00008299,0.00002946,0.00001049,0.00004114,-0.0000
 4107,-0.00004591,0.00000626,0.00002613,-0.00003433,0.00000832,-0.00000
 560,0.00002635,-0.00001421,0.00000298,-0.00000745,-0.00000995,-0.00000
 493,0.00003007,0.00004776,0.00000570,-0.00000818,-0.00005077,0.0000314
 0,0.00000271,-0.00010975,-0.00053320,0.00199575,0.14451576,-0.00100354
 ,0.00025008,-0.00026626,-0.00036690,0.00161474,-0.00139876,-0.00017329
 ,0.00009463,-0.00002999,-0.00396275,0.00521752,-0.00179030,0.13352310,
 -0.25896671,0.01806377,0.01704655,-0.01439648,0.00406232,-0.00215612,-
 0.00343849,-0.00321829,-0.00004767,-0.00001562,0.00022482,0.00020251,0
 .00000322,0.00000750,-0.00020032,0.00001080,-0.00004614,0.00005865,-0.
 00000120,-0.00001741,0.00000119,0.00000118,-0.00000826,-0.00002360,0.0
 0000190,-0.00000946,0.00002498,-0.00000107,0.00000228,-0.00002121,0.00
 000119,0.00000282,0.00003639,-0.00000184,0.00003113,-0.00031315,0.0003
 3224,0.00085199,-0.14297536,0.26929858,-0.00053011,-0.00037981,-0.0007
 7813,-0.00435521,-0.00143641,0.00479805,-0.00049718,0.00027088,-0.0003
 0965,-0.00774296,0.01173767,0.00347091,-0.02119124,0.01781269,-0.04715
 496,0.00614472,-0.00897019,0.00594257,-0.00310499,-0.00301238,0.004920
 58,0.00051519,0.00001428,-0.00067553,0.00012769,0.00006002,-0.00002107
 ,0.00002606,-0.00002159,0.00011328,-0.00001371,-0.00003891,0.00000079,
 -0.00000824,0.00000653,-0.00001424,0.00000762,0.00000276,0.00001227,0.
 00000582,0.00000089,-0.00001213,-0.00000470,-0.00000942,0.00000547,0.0
 0003449,0.00002054,-0.00001260,0.00202622,0.00077696,-0.00318468,0.026
 45915,-0.01753726,0.03593824,0.00163549,0.00357937,-0.00225008,0.00042
 792,0.00004710,0.00047459,-0.00014645,-0.00008255,0.00026648,0.0020808
 3,-0.00142949,-0.00260337,-0.00401751,0.00312935,-0.00310209,-0.289942
 44,-0.01211780,-0.12211480,-0.00967867,-0.00408349,-0.00716341,-0.0001
 9083,-0.00061217,-0.00027247,-0.00072291,0.00019276,-0.00003052,0.0004
 9256,0.00004168,0.00005954,-0.00014254,0.00001909,-0.00001646,0.000021
 34,-0.00000951,0.00004900,0.00003933,-0.00001443,0.00002593,-0.0000542
 9,0.00000203,0.00001043,0.00005718,0.00000504,-0.00001331,-0.00011663,
 -0.00000836,-0.00005854,-0.00028146,0.00015698,-0.00015165,-0.00028958
 ,-0.00038669,0.00174337,0.30100490,0.00252296,-0.00352097,-0.00060731,
 0.00022882,-0.00156204,-0.00006529,-0.00011930,0.00014439,0.00011964,-
 0.00101371,-0.00415900,-0.00277765,-0.02493389,0.00405151,-0.01183655,
 -0.01217709,-0.05959274,-0.00991839,0.02392762,0.00617179,0.01174427,0
 .00081539,0.00047596,0.00044166,0.00084172,-0.00032365,0.00005330,-0.0
 0040469,-0.00007361,-0.00006968,0.00012053,-0.00001975,-0.00003000,-0.
 00001589,0.00000399,-0.00002895,-0.00004576,0.00001906,-0.00000689,0.0
 0005432,-0.00000355,0.00000666,-0.00003153,-0.00000425,-0.00000591,0.0
 0007728,0.00002022,0.00007571,-0.00106182,0.00010861,-0.00055096,-0.00
 004391,0.00069754,0.00099536,0.01204770,0.05691143,-0.00256130,-0.0008
 4114,0.00581485,0.00066336,0.00009369,-0.00019340,0.00027022,0.0002046
 5,-0.00059798,-0.00248993,-0.00288816,0.00516920,-0.00884446,0.0013543
 3,-0.00011199,-0.12202806,-0.00952996,-0.09902564,-0.00130589,-0.00191
 812,0.00281721,-0.00011405,-0.00009199,0.00028413,-0.00013671,0.000125
 95,-0.00008418,0.00011694,-0.00000501,-0.00005739,-0.00002085,0.000032
 92,0.00004518,0.00000187,0.00000294,-0.00000177,0.00002769,-0.00000975
 ,-0.00001459,-0.00002656,0.00000254,-0.00001618,0.,0.00000800,0.000015
 82,-0.00001403,-0.00001904,-0.00002930,-0.00034766,0.00005883,-0.00007
 078,0.00180333,0.00081703,-0.00308389,0.13321143,0.01186378,0.09254973
 ,-0.00412541,-0.02420716,-0.00968592,-0.00267168,0.00144934,-0.0035593
 6,-0.00082457,-0.00097255,-0.00077223,-0.00087665,0.00051541,0.0001318
 1,-0.00039324,0.00361213,-0.00272063,0.01035562,0.01628489,0.00573765,
 -0.08506609,-0.08198778,-0.03616958,-0.00033024,-0.00289812,0.00340943
 ,0.00115129,0.00065214,-0.00021646,-0.00087738,0.00011930,-0.00042470,
 0.00034709,-0.00001619,-0.00017261,0.00003103,0.00002055,0.00001235,-0
 .00012582,-0.00002449,-0.00006508,0.00012387,-0.00000822,0.00003249,-0
 .00006678,0.00002423,0.00002329,0.00014843,0.00003929,0.00017026,-0.00
 006571,-0.00005269,0.00020896,0.00029905,0.00073175,0.00036094,-0.0001
 6327,-0.00079582,0.00179723,0.08310529,0.00057894,0.00244284,-0.000149
 76,-0.00018987,0.00072725,-0.00083523,0.00047597,0.00008528,0.00012377
 ,0.00083067,0.00054090,0.00060444,0.00367466,-0.00236301,0.00006761,-0
 .01045668,-0.01296540,-0.00892786,-0.08293481,-0.28813170,-0.08559774,
 0.00277313,-0.00096828,0.00097906,-0.00185371,-0.00015644,0.00007712,0
 .00095614,0.00005126,-0.00002908,-0.00023232,-0.00000343,0.00005303,0.
 00005301,-0.00002173,0.00007836,0.00008117,0.00001631,0.00001595,-0.00
 010385,0.00000273,0.00001469,0.00009962,-0.00003981,-0.00000599,-0.000
 21015,0.00002330,-0.00015899,-0.00008833,-0.00005007,0.00004545,-0.000
 52057,-0.00070165,-0.00029391,-0.00047343,0.00066153,0.00074058,0.0875
 4910,0.30083646,-0.00446146,-0.01250111,0.00079054,-0.00408696,-0.0007
 3837,0.00378781,-0.00030349,-0.00050342,-0.00016107,-0.00003839,0.0005
 2415,-0.00087983,-0.00283341,0.00011393,0.00574200,0.00091544,0.003981
 26,0.00602610,-0.03763665,-0.08490094,-0.07339961,0.00319568,-0.000181
 95,-0.00277902,0.00134589,0.00002247,0.00001323,-0.00041703,0.00005122
 ,0.00026282,0.00008615,0.00000788,0.00000560,-0.00002407,0.00001994,-0
 .00009503,-0.00002401,-0.00003845,-0.00003765,0.00003779,0.00000476,-0
 .00003237,-0.00007311,0.00003128,0.00004829,0.00018306,-0.00001434,0.0
 0006625,0.00020411,0.00009158,-0.00040615,0.00010842,0.00025854,0.0000
 4489,0.00193224,0.00059463,-0.00340704,0.04188544,0.09319040,0.0644226
 1,-0.00006705,0.00013910,0.00022016,-0.00010252,-0.00005157,-0.0000150
 1,0.00003351,0.00001288,0.00002263,-0.00000788,0.00001786,-0.00002597,
 -0.00001665,0.00001699,-0.00000484,-0.00000311,0.00003511,0.00001300,0
 .00006672,0.00003947,-0.00001333,0.00020600,-0.00037218,-0.00040652,-0
 .00062022,0.00009966,0.00139355,-0.00514488,0.00079337,-0.00059091,-0.
 00949538,-0.00433650,0.02664077,0.00102629,-0.00032704,0.00029933,-0.1
 2215012,-0.01692418,0.11962222,0.01216086,0.00209676,-0.01464842,-0.00
 104436,0.00077628,-0.00330533,-0.00063679,0.00016567,-0.00076031,-0.00
 000226,0.00000657,0.00000315,-0.00000164,0.00000210,0.00000021,-0.0000
 0843,0.00000340,0.00000297,0.00001057,-0.00000608,0.00000707,0.1247406
 1,0.00001950,0.00001021,-0.00001919,-0.00000473,-0.00001952,0.00000358
 ,-0.00001235,0.00002658,0.00002169,0.00000659,0.00000701,-0.00001060,0
 .00000326,0.00000189,0.00000250,-0.00000224,-0.00000642,0.00000058,-0.
 00000949,0.00001016,0.00000716,-0.00014499,-0.00006063,-0.00001905,0.0
 0028564,0.00030078,0.00025301,0.00042163,0.00562348,0.00046601,0.00099
 823,0.00386410,-0.00041629,-0.00007904,-0.00297822,-0.00083219,-0.0170
 2660,-0.04353832,0.03606430,-0.00303316,0.00422547,0.00314676,0.000764
 49,0.00648924,0.00196035,0.00023975,-0.00099151,-0.00025151,0.00000331
 ,-0.00000050,-0.00000359,-0.00000057,0.00000008,0.00000243,-0.00000111
 ,0.00000153,-0.00000258,0.00000194,0.,-0.00000091,0.01791368,0.0317162
 0,0.00002559,-0.00009573,0.00007031,0.00003524,0.00002607,0.00001565,-
 0.00002336,0.00000696,0.00000544,0.00000944,-0.00000115,-0.00000384,0.
 00000166,-0.00000581,0.00000060,0.00000120,-0.00000345,-0.00000251,-0.
 00001808,-0.00001959,-0.00001285,-0.00009117,0.00009222,-0.00011602,0.
 00034281,0.00005744,0.00023653,-0.00103758,0.00072477,0.00140200,-0.00
 366562,0.00060114,0.00118232,-0.00066684,-0.00065870,0.00088395,0.1219
 6722,0.03558751,-0.27786601,0.01490605,0.00261778,-0.01422679,-0.00361
 596,0.00176809,-0.00264694,-0.00075535,-0.00018449,0.00046341,0.000002
 04,-0.00000235,-0.00000263,0.00000110,-0.00000115,0.00000037,0.0000019
 4,-0.00000192,0.00000145,-0.00000490,0.00000410,-0.00000054,-0.1281188
 9,-0.03965245,0.29075483,-0.00000177,0.00003793,0.00002482,-0.00001429
 ,-0.00001866,-0.00000103,-0.00000486,-0.00000047,-0.00000129,-0.000019
 46,0.00000139,-0.00001258,-0.00000217,0.00000886,0.00000181,0.00000259
 ,0.00000870,0.00000773,0.00002404,0.00001608,0.00000489,0.00014450,-0.
 00007360,-0.00000884,0.00000661,0.00000016,-0.00002710,0.00059863,-0.0
 0002717,-0.00004755,0.00101444,0.00052179,-0.00223587,-0.00058205,0.00
 008758,-0.00023246,-0.01023458,-0.00014731,0.00410915,-0.34987218,0.01
 126866,0.00649900,-0.00929525,0.00103488,-0.00391304,0.00074741,-0.000
 22146,0.00289150,0.00000083,0.00000091,-0.00000019,-0.00000205,0.00000
 221,-0.00000106,-0.00000302,0.00000124,-0.00000166,0.00000832,-0.00000
 086,-0.00000040,0.00061791,-0.00018559,-0.00001260,0.36681856,0.000021
 64,-0.00004196,-0.00006473,0.00005746,0.00001047,0.00002657,-0.0000336
 8,-0.00001373,-0.00001384,-0.00001478,-0.00000048,-0.00000678,0.000004
 81,0.00000259,0.00000323,-0.00000171,-0.00000831,-0.00000187,-0.000010
 37,-0.00000211,-0.00000520,-0.00008917,-0.00000496,0.00010501,0.000058
 89,-0.00039105,0.00008552,0.00000208,-0.00067910,-0.00014427,0.0009009
 6,0.00583348,0.00166458,0.00023125,0.00051099,0.00030235,0.00460228,0.
 00188052,-0.00089998,0.01123620,-0.03246286,0.00403003,-0.00384310,0.0
 0202303,-0.00044712,-0.00046375,0.00570004,0.00159620,0.00000301,-0.00
 000264,-0.00000175,-0.00000033,-0.00000010,0.00000002,-0.00000030,-0.0
 0000041,0.00000018,-0.00000226,0.00000163,-0.00000112,-0.00017899,-0.0
 0415879,-0.00085624,-0.01218341,0.02514398,0.00001867,-0.00002588,-0.0
 0004155,-0.00001508,-0.00000851,-0.00001768,0.00000996,0.00001278,0.00
 001540,0.00001195,-0.00000263,0.00001175,0.00000038,-0.00000589,-0.000
 00118,0.00000190,-0.00000175,0.00000385,-0.00000455,-0.00000441,0.0000
 0402,-0.00002897,0.00003284,-0.00000273,0.00003310,-0.00015335,0.00032
 581,-0.00016492,0.00015158,-0.00118608,-0.00122666,0.00157822,-0.00313
 371,-0.00123197,0.00025849,-0.00051355,-0.02754985,0.00065165,0.004277
 20,0.00664692,0.00373455,-0.05740621,0.02749477,-0.00149634,0.00447260
 ,0.00176431,0.00153266,-0.00418095,0.00000025,0.00000028,-0.00000118,0
 .00000158,-0.00000005,-0.00000033,0.00000159,-0.00000029,-0.00000069,0
 .00000251,0.00000302,-0.00000411,0.00040206,-0.00083342,0.00074090,-0.
 00692837,-0.00475322,0.05575708,-0.00003025,0.00013380,0.00016981,-0.0
 0019051,-0.00009357,-0.00007910,0.00007233,0.00002752,0.00005962,-0.00
 000819,0.00001732,-0.00001595,-0.00001422,0.00002542,0.00000014,0.0000
 1801,0.00003251,0.00001573,0.00006593,0.00004493,0.00000681,0.00016321
 ,-0.00016123,0.00006859,-0.00044657,0.00009193,-0.00129682,-0.00535769
 ,0.00018242,0.00041431,-0.00076294,-0.00019798,0.00085852,0.00010792,-
 0.00001241,-0.00009503,-0.00070187,-0.00023248,0.00330653,0.01177708,-
 0.00244983,0.01408243,-0.13117415,0.02266827,-0.12216902,-0.00961166,0
 .00489167,-0.02650167,-0.00000167,0.00000949,-0.00000288,0.00000007,0.
 00000270,0.00000034,-0.00000649,0.00000355,-0.00000195,0.00001306,-0.0
 0000433,0.00000508,0.00041159,-0.00013906,0.00064719,0.00058395,-0.000
 12871,-0.00045927,0.13426310,-0.00002840,0.00001130,0.00008388,0.00010
 638,0.00002858,0.00004647,-0.00005474,-0.00000430,0.00000122,-0.000000
 24,-0.00000225,-0.00002302,0.00000393,-0.00001301,-0.00000162,-0.00000
 406,0.00000271,-0.00001011,0.00000361,-0.00003440,-0.00000340,0.000146
 59,-0.00013508,-0.00011062,-0.00018847,0.00041312,0.00022636,0.0002711
 2,0.00687655,0.00092874,0.00003910,-0.00078697,-0.00022965,-0.00005836
 ,-0.00056232,-0.00014617,-0.00030772,0.00648255,0.00156616,0.00244642,
 0.00391998,0.00249778,0.02289102,-0.04640803,0.04037087,-0.00041827,0.
 00407147,0.00079317,0.00000489,-0.00000541,0.00000225,-0.00000179,-0.0
 0000120,0.00000127,0.00000107,-0.00000224,0.00000184,-0.00000705,0.000
 00220,-0.00000126,0.00009171,-0.00001179,0.00008407,-0.00019358,-0.003
 97818,-0.00074650,-0.02458640,0.03462130,-0.00002464,0.00013029,-0.000
 07240,-0.00005323,-0.00003460,-0.00002465,0.00001407,-0.00000570,0.000
 00106,-0.00000460,0.00000450,0.00000179,-0.00000343,0.00000366,-0.0000
 0199,-0.00000602,0.00000964,0.00000681,0.00002897,0.00002973,0.0000121
 6,0.00011299,-0.00017756,0.00001004,-0.00063809,0.00010933,0.00018885,
 0.00185737,0.00074889,0.00185048,0.00095792,-0.00020347,0.00043982,-0.
 00015675,-0.00007869,-0.00003824,0.00367963,0.00146523,-0.00328697,-0.
 01660430,0.00368814,-0.01504241,-0.12262731,0.04032810,-0.26718350,0.0
 0348384,-0.00006676,0.00375861,-0.00000147,0.00000338,0.00000054,-0.00
 000141,0.00000220,-0.00000050,-0.00000365,0.00000336,-0.00000237,0.000
 00966,-0.00000592,0.00000042,-0.00074337,0.00017163,-0.00083645,0.0000
 2524,-0.00077312,0.00077582,0.13081122,-0.04452404,0.27895962,0.000058
 35,-0.00008612,-0.00023166,0.00011044,0.00010121,0.00000031,-0.0000926
 7,-0.00008466,-0.00002409,-0.00002950,-0.00000831,0.00001869,0.0000202
 7,0.00000496,0.00001178,-0.00000278,-0.00004554,-0.00001135,-0.0000804
 5,-0.00000710,0.00000816,-0.00078190,0.00020057,0.00027673,0.00266103,
 -0.00019747,-0.00032910,0.00846546,0.00280457,-0.01698323,-0.00111273,
 0.00051085,-0.00172901,0.00012611,0.00020290,-0.00109009,-0.00075720,0
 .00015014,-0.00103980,-0.00504066,0.00054801,-0.00115942,-0.00801979,-
 0.00395965,0.02742379,-0.12812900,-0.01792633,0.12577926,0.00000047,-0
 .00000322,-0.00000059,0.00000126,-0.00000152,-0.00000241,0.00000497,-0
 .00000112,-0.00000194,-0.00000677,0.00000258,-0.00000740,0.00002722,-0
 .00001908,0.00006887,-0.00053612,-0.00016800,0.00121971,0.00082996,-0.
 00015676,-0.00011263,0.13228400,0.00015259,-0.00013494,-0.00044247,0.0
 0068790,0.00023752,0.00028019,-0.00034045,-0.00039350,-0.00021105,-0.0
 0023430,-0.00002992,-0.00011779,0.00003919,0.00003772,0.00002762,-0.00
 003496,-0.00005632,-0.00001795,-0.00005469,-0.00003797,-0.00002147,-0.
 00020313,-0.00081840,0.00058887,-0.00072410,-0.00122760,0.00037933,-0.
 00075694,0.00267959,0.00359262,0.00080360,0.00501130,0.00094634,-0.000
 07508,-0.00035166,0.00018119,0.00002121,-0.00080294,-0.00026983,0.0003
 0421,0.00647522,0.00093318,0.00103669,0.00266630,-0.00076570,-0.018649
 43,-0.03711557,0.03478503,0.00001806,-0.00003106,0.00000031,-0.0000210
 5,0.00000066,-0.00000243,-0.00000284,-0.00000534,-0.00000152,-0.000027
 73,0.00000984,-0.00001018,-0.00001409,-0.00051102,-0.00008712,0.000061
 76,0.00063794,0.00007617,-0.00012552,-0.00448458,-0.00082821,0.0181390
 9,0.02824472,0.00015294,-0.00010529,-0.00028517,-0.00020961,-0.0000865
 9,-0.00013313,0.00015534,-0.00006531,0.00010359,0.00006465,0.00000129,
 0.00006571,0.00000568,0.00000157,-0.00000406,0.00001478,-0.00002403,0.
 00001706,-0.00005414,0.00003718,0.00000569,-0.00115798,-0.00002522,0.0
 0018905,0.00232112,-0.00039096,0.00059093,0.01414503,0.00303240,-0.015
 95389,-0.00274626,0.00103932,-0.00177211,0.00016318,0.00011292,-0.0011
 6465,-0.00138735,-0.00004771,-0.00000280,-0.00040140,0.00067713,0.0022
 3752,-0.00277641,-0.00027193,0.00390973,0.12374030,0.03582399,-0.27533
 580,-0.00000945,0.00000949,-0.00000159,0.00000984,-0.00000108,0.000000
 30,0.00000383,0.00000143,-0.00000036,0.00000944,0.00000691,-0.00000815
 ,0.00000578,-0.00005822,-0.00004316,-0.00014008,0.00015554,0.00010550,
 0.00017535,-0.00080768,0.00048347,-0.13208458,-0.03901514,0.28699632\\
 0.00000288,-0.00000166,0.00000194,-0.00000003,0.00000298,0.00000019,0.
 00000474,-0.00000006,0.00000434,0.00000447,-0.00000105,0.00000420,-0.0
 0000266,0.00000274,0.00000129,-0.00000009,-0.00000349,0.00000089,-0.00
 000481,0.00000085,-0.00000062,0.00000040,-0.00000037,0.00000012,-0.000
 00024,-0.00000039,-0.00000075,-0.00000074,-0.00000057,-0.00000066,0.00
 000154,0.00000133,-0.00000165,-0.00000302,0.00000213,-0.00000448,-0.00
 000214,0.00000075,-0.00000227,0.00000193,-0.00000009,-0.00000129,0.000
 00010,-0.00000049,-0.00000037,0.00000120,-0.00000065,0.00000065,0.0000
 0147,0.00000176,0.00000224,-0.00000031,-0.00000004,0.00000104,-0.00000
 464,-0.00000100,-0.00000154,-0.00000195,-0.00000265,-0.00000098,0.0000
 0059,0.00000086,-0.00000288,0.00000037,0.00000009,-0.00000071,0.000000
 83,-0.00000049,0.00000062,0.00000011,-0.00000050,0.00000069\\\@
 The archive entry for this job was punched.


 YOU SHOULDN'T LET PEOPLE DRIVE YOU CRAZY
 WHEN YOU KNOW IT'S WITHIN WALKING DISTANCE.
 Job cpu time:       0 days  0 hours 22 minutes 54.1 seconds.
 Elapsed time:       0 days  0 hours 23 minutes  7.0 seconds.
 File lengths (MBytes):  RWF=    245 Int=      0 D2E=      0 Chk=      6 Scr=      1
 Normal termination of Gaussian 16 at Fri Mar  6 17:55:02 2026.
