 Entering Gaussian System, Link 0=g16
 Initial command:
 /prod/precompiled/gaussian/16c2/g16/l1.exe "/scratch/ucsscms/svela/2076942/Gau-1267091.inp" -scrdir="/scratch/ucsscms/svela/2076942/"
 Entering Link 1 = /prod/precompiled/gaussian/16c2/g16/l1.exe PID=   1267104.
  
 Copyright (c) 1988-2021, Gaussian, Inc.  All Rights Reserved.
  
 This is part of the Gaussian(R) 16 program.  It is based on
 the Gaussian(R) 09 system (copyright 2009, Gaussian, Inc.),
 the Gaussian(R) 03 system (copyright 2003, Gaussian, Inc.),
 the Gaussian(R) 98 system (copyright 1998, Gaussian, Inc.),
 the Gaussian(R) 94 system (copyright 1995, Gaussian, Inc.),
 the Gaussian 92(TM) system (copyright 1992, Gaussian, Inc.),
 the Gaussian 90(TM) system (copyright 1990, Gaussian, Inc.),
 the Gaussian 88(TM) system (copyright 1988, Gaussian, Inc.),
 the Gaussian 86(TM) system (copyright 1986, Carnegie Mellon
 University), and the Gaussian 82(TM) system (copyright 1983,
 Carnegie Mellon University). Gaussian is a federally registered
 trademark of Gaussian, Inc.
  
 This software contains proprietary and confidential information,
 including trade secrets, belonging to Gaussian, Inc.
  
 This software is provided under written license and may be
 used, copied, transmitted, or stored only in accord with that
 written license.
  
 The following legend is applicable only to US Government
 contracts under FAR:
  
                    RESTRICTED RIGHTS LEGEND
  
 Use, reproduction and disclosure by the US Government is
 subject to restrictions as set forth in subparagraphs (a)
 and (c) of the Commercial Computer Software - Restricted
 Rights clause in FAR 52.227-19.
  
 Gaussian, Inc.
 340 Quinnipiac St., Bldg. 40, Wallingford CT 06492
  
  
 ---------------------------------------------------------------
 Warning -- This program may not be used in any manner that
 competes with the business of Gaussian, Inc. or will provide
 assistance to any competitor of Gaussian, Inc.  The licensee
 of this program is prohibited from giving any competitor of
 Gaussian, Inc. access to this program.  By using this program,
 the user acknowledges that Gaussian, Inc. is engaged in the
 business of creating and licensing software in the field of
 computational chemistry and represents and warrants to the
 licensee that it is not a competitor of Gaussian, Inc. and that
 it will not use this program in any manner prohibited above.
 ---------------------------------------------------------------
  

 Cite this work as:
 Gaussian 16, Revision C.02,
 M. J. Frisch, G. W. Trucks, H. B. Schlegel, G. E. Scuseria, 
 M. A. Robb, J. R. Cheeseman, G. Scalmani, V. Barone, 
 G. A. Petersson, H. Nakatsuji, X. Li, M. Caricato, A. V. Marenich, 
 J. Bloino, B. G. Janesko, R. Gomperts, B. Mennucci, H. P. Hratchian, 
 J. V. Ortiz, A. F. Izmaylov, J. L. Sonnenberg, D. Williams-Young, 
 F. Ding, F. Lipparini, F. Egidi, J. Goings, B. Peng, A. Petrone, 
 T. Henderson, D. Ranasinghe, V. G. Zakrzewski, J. Gao, N. Rega, 
 G. Zheng, W. Liang, M. Hada, M. Ehara, K. Toyota, R. Fukuda, 
 J. Hasegawa, M. Ishida, T. Nakajima, Y. Honda, O. Kitao, H. Nakai, 
 T. Vreven, K. Throssell, J. A. Montgomery, Jr., J. E. Peralta, 
 F. Ogliaro, M. J. Bearpark, J. J. Heyd, E. N. Brothers, K. N. Kudin, 
 V. N. Staroverov, T. A. Keith, R. Kobayashi, J. Normand, 
 K. Raghavachari, A. P. Rendell, J. C. Burant, S. S. Iyengar, 
 J. Tomasi, M. Cossi, J. M. Millam, M. Klene, C. Adamo, R. Cammi, 
 J. W. Ochterski, R. L. Martin, K. Morokuma, O. Farkas, 
 J. B. Foresman, and D. J. Fox, Gaussian, Inc., Wallingford CT, 2019.
 
 ******************************************
 Gaussian 16:  ES64L-G16RevC.02  7-Dec-2021
                 6-Mar-2026 
 ******************************************
 %nprocs=12
 Will use up to   12 processors via shared memory.
 %mem=18gb
 %chk=test_tsrot_a_t_freq_r1.chk
 ----------------------------------------------------------------------
 #p nosymm scf=(maxconventionalcycles=200,xqc) UwB97XD def2SVP freq(hpm
 odes)
 ----------------------------------------------------------------------
 1/10=4,30=1,38=1/1,3;
 2/12=2,15=1,17=6,18=5,40=1/2;
 3/5=43,7=101,11=2,25=1,30=1,71=2,74=-58,116=2,140=1/1,2,3;
 4//1;
 5/5=2,8=3,13=1,38=5,85=200,98=1/2,8;
 8/6=4,10=90,11=11/1;
 11/6=1,8=1,9=11,15=111,16=1,31=1/1,2,10;
 10/6=1,31=1/2;
 6/7=2,8=2,9=2,10=2,28=1/1;
 7/8=11,10=1,25=1,30=1/1,2,3,16;
 1/10=4,30=1/3;
 99//99;
 Leave Link    1 at Fri Mar  6 17:31:42 2026, MaxMem=  2415919104 cpu:               0.1 elap:               0.4
 (Enter /prod/precompiled/gaussian/16c2/g16/l101.exe)
 ----------
 Title Card
 ----------
 Symbolic Z-matrix:
 Charge =  0 Multiplicity = 3
 C                    -0.17313  -1.0445   -0.65831 
 C                     0.01392   0.34941  -0.45709 
 Cl                    1.06503   0.95205   0.78762 
 C                    -0.64003   1.27276  -1.26863 
 C                    -1.47562   0.84611  -2.29818 
 C                    -1.66177  -0.52217  -2.52253 
 C                    -1.02303  -1.44686  -1.71624 
 N                     0.40889  -2.04828   0.05789 
 N                     1.04735  -1.95878   1.14757 
 C                     2.38116  -2.14846   1.35733 
 C                     3.38232  -2.25991   0.35551 
 Cl                    2.98915  -2.15751  -1.33328 
 C                     4.7161   -2.44577   0.7095 
 C                     5.0922   -2.51136   2.04908 
 C                     4.12376  -2.38933   3.05129 
 C                     2.79522  -2.21286   2.70931 
 H                    -0.47847   2.33619  -1.08639 
 H                    -1.97753   1.58419  -2.92627 
 H                    -2.31176  -0.86355  -3.33022 
 H                    -1.15221  -2.51964  -1.86705 
 H                     5.46069  -2.53124  -0.08327 
 H                     6.14281  -2.6543    2.30785 
 H                     4.41199  -2.43547   4.10304 
 H                     2.01908  -2.11704   3.47005 
 
 ITRead=  0  0  0  0  0  0  0  0  0  0  0  0  0  0  0  0  0  0  0  0
 ITRead=  0  0  0  0
 MicOpt= -1 -1 -1 -1 -1 -1 -1 -1 -1 -1 -1 -1 -1 -1 -1 -1 -1 -1 -1 -1
 MicOpt= -1 -1 -1 -1
 NAtoms=     24 NQM=       24 NQMF=       0 NMMI=      0 NMMIF=      0
                NMic=       0 NMicF=      0.
                    Isotopes and Nuclear Properties:
 (Nuclear quadrupole moments (NQMom) in fm**2, nuclear magnetic moments (NMagM)
  in nuclear magnetons)

  Atom         1           2           3           4           5           6           7           8           9          10
 IAtWgt=          12          12          35          12          12          12          12          14          14          12
 AtmWgt=  12.0000000  12.0000000  34.9688527  12.0000000  12.0000000  12.0000000  12.0000000  14.0030740  14.0030740  12.0000000
 NucSpn=           0           0           3           0           0           0           0           2           2           0
 AtZEff=  -0.0000000  -0.0000000  -0.0000000  -0.0000000  -0.0000000  -0.0000000  -0.0000000  -0.0000000  -0.0000000  -0.0000000
 NQMom=    0.0000000   0.0000000  -8.1650000   0.0000000   0.0000000   0.0000000   0.0000000   2.0440000   2.0440000   0.0000000
 NMagM=    0.0000000   0.0000000   0.8218740   0.0000000   0.0000000   0.0000000   0.0000000   0.4037610   0.4037610   0.0000000
 AtZNuc=   6.0000000   6.0000000  17.0000000   6.0000000   6.0000000   6.0000000   6.0000000   7.0000000   7.0000000   6.0000000

  Atom        11          12          13          14          15          16          17          18          19          20
 IAtWgt=          12          35          12          12          12          12           1           1           1           1
 AtmWgt=  12.0000000  34.9688527  12.0000000  12.0000000  12.0000000  12.0000000   1.0078250   1.0078250   1.0078250   1.0078250
 NucSpn=           0           3           0           0           0           0           1           1           1           1
 AtZEff=  -0.0000000  -0.0000000  -0.0000000  -0.0000000  -0.0000000  -0.0000000  -0.0000000  -0.0000000  -0.0000000  -0.0000000
 NQMom=    0.0000000  -8.1650000   0.0000000   0.0000000   0.0000000   0.0000000   0.0000000   0.0000000   0.0000000   0.0000000
 NMagM=    0.0000000   0.8218740   0.0000000   0.0000000   0.0000000   0.0000000   2.7928460   2.7928460   2.7928460   2.7928460
 AtZNuc=   6.0000000  17.0000000   6.0000000   6.0000000   6.0000000   6.0000000   1.0000000   1.0000000   1.0000000   1.0000000

  Atom        21          22          23          24
 IAtWgt=           1           1           1           1
 AtmWgt=   1.0078250   1.0078250   1.0078250   1.0078250
 NucSpn=           1           1           1           1
 AtZEff=  -0.0000000  -0.0000000  -0.0000000  -0.0000000
 NQMom=    0.0000000   0.0000000   0.0000000   0.0000000
 NMagM=    2.7928460   2.7928460   2.7928460   2.7928460
 AtZNuc=   1.0000000   1.0000000   1.0000000   1.0000000
 Leave Link  101 at Fri Mar  6 17:31:42 2026, MaxMem=  2415919104 cpu:               0.1 elap:               0.1
 (Enter /prod/precompiled/gaussian/16c2/g16/l103.exe)

 GradGradGradGradGradGradGradGradGradGradGradGradGradGradGradGradGradGrad
 Berny optimization.
 Initialization pass.
 Trust Radius=3.00D-01 FncErr=1.00D-07 GrdErr=1.00D-07 EigMax=2.50D+02 EigMin=1.00D-04
 Number of steps in this run=      2 maximum allowed number of steps=      2.
 GradGradGradGradGradGradGradGradGradGradGradGradGradGradGradGradGradGrad

 Leave Link  103 at Fri Mar  6 17:31:42 2026, MaxMem=  2415919104 cpu:               0.1 elap:               0.0
 (Enter /prod/precompiled/gaussian/16c2/g16/l202.exe)
                          Input orientation:                          
 ---------------------------------------------------------------------
 Center     Atomic      Atomic             Coordinates (Angstroms)
 Number     Number       Type             X           Y           Z
 ---------------------------------------------------------------------
      1          6           0       -0.173125   -1.044504   -0.658308
      2          6           0        0.013923    0.349413   -0.457092
      3         17           0        1.065029    0.952054    0.787615
      4          6           0       -0.640029    1.272760   -1.268630
      5          6           0       -1.475615    0.846111   -2.298175
      6          6           0       -1.661771   -0.522165   -2.522530
      7          6           0       -1.023030   -1.446859   -1.716243
      8          7           0        0.408887   -2.048276    0.057890
      9          7           0        1.047350   -1.958780    1.147568
     10          6           0        2.381159   -2.148460    1.357329
     11          6           0        3.382317   -2.259911    0.355508
     12         17           0        2.989145   -2.157513   -1.333279
     13          6           0        4.716098   -2.445765    0.709504
     14          6           0        5.092197   -2.511355    2.049084
     15          6           0        4.123760   -2.389334    3.051290
     16          6           0        2.795215   -2.212859    2.709307
     17          1           0       -0.478473    2.336190   -1.086390
     18          1           0       -1.977525    1.584192   -2.926274
     19          1           0       -2.311757   -0.863546   -3.330217
     20          1           0       -1.152215   -2.519643   -1.867054
     21          1           0        5.460689   -2.531237   -0.083265
     22          1           0        6.142812   -2.654295    2.307847
     23          1           0        4.411991   -2.435471    4.103040
     24          1           0        2.019081   -2.117044    3.470048
 ---------------------------------------------------------------------
                    Distance matrix (angstroms):
                    1          2          3          4          5
     1  C    0.000000
     2  C    1.420732   0.000000
     3  Cl   2.758616   1.737036   0.000000
     4  C    2.441353   1.392414   2.690394   0.000000
     5  C    2.821359   2.419715   3.998524   1.392909   0.000000
     6  C    2.442177   2.798863   4.534955   2.416191   1.398988
     7  C    1.415434   2.426381   4.047725   2.782692   2.408566
     8  N    1.363538   2.483972   3.156739   3.726816   4.180893
     9  N    2.363609   2.995106   2.933059   4.373570   5.109394
    10  C    3.435968   3.890411   3.416132   5.265737   6.099580
    11  C    3.891813   4.337622   3.984126   5.594359   6.347355
    12  Cl   3.419697   3.988023   4.227271   4.994182   5.466888
    13  C    5.266777   5.593247   4.988144   6.813849   7.630196
    14  C    6.099610   6.344587   5.459358   7.627920   8.561974
    15  C    5.833773   6.058072   5.064083   7.400427   8.392728
    16  C    4.638634   4.932231   4.086945   6.306697   7.257559
    17  H    3.421342   2.141437   2.794660   1.090961   2.164036
    18  H    3.912745   3.404028   4.842490   2.152596   1.091414
    19  H    3.427184   3.890360   5.626333   3.407142   2.164988
    20  H    2.143763   3.402845   4.900624   3.873340   3.408629
    21  H    5.854990   6.172937   5.675700   7.286580   8.026495
    22  H    7.161045   7.364131   6.410986   8.615096   9.566019
    23  H    6.754888   6.920505   5.802545   8.254012   9.295603
    24  H    4.795772   5.052375   4.186290   6.404429   7.366518
                    6          7          8          9         10
     6  C    0.000000
     7  C    1.383166   0.000000
     8  N    3.643516   2.357888   0.000000
     9  N    4.782554   3.570707   1.266113   0.000000
    10  C    5.834674   4.639784   2.363987   1.363461   0.000000
    11  C    6.061822   4.935614   2.995772   2.483971   1.420698
    12  Cl   5.071459   4.092583   2.933431   3.156686   2.758460
    13  C    7.404289   6.310281   4.374319   3.726764   2.441313
    14  C    8.394797   7.259948   5.110058   4.180772   2.821337
    15  C    8.247797   7.078635   4.782995   3.643327   2.442168
    16  C    7.077803   5.895019   3.570947   2.357672   1.415427
    17  H    3.410702   3.873592   4.617394   5.075970   5.853319
    18  H    2.167821   3.400368   5.272098   6.188595   7.161011
    19  H    1.091504   2.146155   4.503860   5.703832   6.756297
    20  H    2.163149   1.091008   2.522823   3.773672   4.797828
    21  H    7.792036   6.773559   5.076798   4.617382   3.421306
    22  H    9.422846   8.306654   6.189302   5.271975   3.912721
    23  H    9.189641   8.023769   5.704209   4.503649   3.427183
    24  H    7.211331   6.049893   3.773629   2.522543   2.143751
                   11         12         13         14         15
    11  C    0.000000
    12  Cl   1.736972   0.000000
    13  C    1.392418   2.690431   0.000000
    14  C    2.419734   3.998551   1.392920   0.000000
    15  C    2.798880   4.534924   2.416198   1.398991   0.000000
    16  C    2.426370   4.047613   2.782669   2.408552   1.383159
    17  H    6.173242   5.681434   7.285321   8.022609   7.786625
    18  H    7.367165   6.419174   8.617658   9.566016   9.420502
    19  H    6.925091   5.810480   8.259147   9.298962   9.190622
    20  H    5.056602   4.191291   6.409462   7.370813   7.214083
    21  H    2.141441   2.794769   1.090965   2.164046   3.410711
    22  H    3.404042   4.842541   2.152603   1.091413   2.167829
    23  H    3.890379   5.626306   3.407150   2.164988   1.091505
    24  H    3.402820   4.900471   3.873314   3.408616   2.163140
                   16         17         18         19         20
    16  C    0.000000
    17  H    6.768914   0.000000
    18  H    8.304000   2.489544   0.000000
    19  H    8.023569   4.316712   2.503258   0.000000
    20  H    6.051397   4.964119   4.317933   2.495604   0.000000
    21  H    3.873574   7.744143   8.963620   8.586897   6.849273
    22  H    3.400359   8.959196  10.549913  10.318638   8.406268
    23  H    2.146162   8.579952  10.314788  10.145592   8.161464
    24  H    1.091005   6.843259   8.401485   8.159107   6.221243
                   21         22         23         24
    21  H    0.000000
    22  H    2.489548   0.000000
    23  H    4.316722   2.503267   0.000000
    24  H    4.964097   4.317929   2.495615   0.000000
 Symmetry turned off by external request.
 Stoichiometry    C12H8Cl2N2(3)
 Framework group  C1[X(C12H8Cl2N2)]
 Deg. of freedom    66
 Full point group                 C1      NOp   1
 Rotational constants (GHZ):           0.9188288           0.2816078           0.2526702
 Leave Link  202 at Fri Mar  6 17:31:42 2026, MaxMem=  2415919104 cpu:               0.1 elap:               0.0
 (Enter /prod/precompiled/gaussian/16c2/g16/l301.exe)
 Standard basis: def2SVP (5D, 7F)
 Ernie: Thresh=  0.10000D-02 Tol=  0.10000D-05 Strict=F.
   272 basis functions,   480 primitive gaussians,   288 cartesian basis functions
    65 alpha electrons       63 beta electrons
       nuclear repulsion energy      1235.8923550149 Hartrees.
 IExCor= 4639 DFT=T Ex+Corr=wB97XD ExCW=0 ScaHFX=  1.000000
 ScaDFX=  1.000000  1.000000  1.000000  1.000000 ScalE2=  1.000000  1.000000
 IRadAn=      5 IRanWt=     -1 IRanGd=            0 ICorTp=0 IEmpDi=121
 HFx  wShort=  0.000000 wLong=  0.200000 cFull=  0.222036 cShort=  0.000000 cLong=  0.777964
 DFx  wShort=  0.000000 wLong=  0.200000 cFull=  0.000000 cShort=  0.000000 cLong=  1.000000
 NAtoms=   24 NActive=   24 NUniq=   24 SFac= 1.00D+00 NAtFMM=   60 NAOKFM=F Big=F
 Integral buffers will be    131072 words long.
 Raffenetti 2 integral format.
 Two-electron integral symmetry is turned off.
 R6Disp:  Grimme-D2 Dispersion energy=       -0.0146484686 Hartrees.
 Nuclear repulsion after empirical dispersion term =     1235.8777065463 Hartrees.
 Leave Link  301 at Fri Mar  6 17:31:42 2026, MaxMem=  2415919104 cpu:               0.1 elap:               0.0
 (Enter /prod/precompiled/gaussian/16c2/g16/l302.exe)
 NPDir=0 NMtPBC=     1 NCelOv=     1 NCel=       1 NClECP=     1 NCelD=      1
         NCelK=      1 NCelE2=     1 NClLst=     1 CellRange=     0.0.
 One-electron integrals computed using PRISM.
   1 Symmetry operations used in ECPInt.
 ECPInt:  NShTT=    7750 NPrTT=   30142 LenC2=    7120 LenP2D=   19391.
 LDataN:  DoStor=T MaxTD1= 4 Len=   56
 NBasis=   272 RedAO= T EigKep=  2.34D-04  NBF=   272
 NBsUse=   272 1.00D-06 EigRej= -1.00D+00 NBFU=   272
 Precomputing XC quadrature grid using
 IXCGrd= 4 IRadAn=           5 IRanWt=          -1 IRanGd=           0 AccXCQ= 0.00D+00.
 Generated NRdTot=       0 NPtTot=           0 NUsed=           0 NTot=          32
 NSgBfM=   285   285   285   285   285 MxSgAt=    24 MxSgA2=    24.
 Leave Link  302 at Fri Mar  6 17:31:42 2026, MaxMem=  2415919104 cpu:               1.2 elap:               0.2
 (Enter /prod/precompiled/gaussian/16c2/g16/l303.exe)
 DipDrv:  MaxL=1.
 Leave Link  303 at Fri Mar  6 17:31:42 2026, MaxMem=  2415919104 cpu:               0.2 elap:               0.1
 (Enter /prod/precompiled/gaussian/16c2/g16/l401.exe)
 ExpMin= 1.22D-01 ExpMax= 1.04D+04 ExpMxC= 1.57D+03 IAcc=3 IRadAn=         5 AccDes= 0.00D+00
 Harris functional with IExCor= 4639 and IRadAn=       5 diagonalized for initial guess.
 HarFok:  IExCor= 4639 AccDes= 0.00D+00 IRadAn=         5 IDoV= 1 UseB2=F ITyADJ=14
 ICtDFT=  3500011 ScaDFX=  1.000000  1.000000  1.000000  1.000000
 FoFCou: FMM=F IPFlag=           0 FMFlag=      100000 FMFlg1=           0
         NFxFlg=           0 DoJE=T BraDBF=F KetDBF=T FulRan=T
         wScrn=  0.000000 ICntrl=       500 IOpCl=  0 I1Cent=   200000004 NGrid=           0
         NMat0=    1 NMatS0=      1 NMatT0=    0 NMatD0=    1 NMtDS0=    0 NMtDT0=    0
 Symmetry not used in FoFCou.
 Harris En= -1450.76627005380    
 JPrj=0 DoOrth=F DoCkMO=F.
 Initial guess <Sx>= 0.0000 <Sy>= 0.0000 <Sz>= 1.0000 <S**2>= 2.0000 S= 1.0000
 Leave Link  401 at Fri Mar  6 17:31:43 2026, MaxMem=  2415919104 cpu:               5.1 elap:               0.5
 (Enter /prod/precompiled/gaussian/16c2/g16/l502.exe)
 Two-electron integral symmetry not used.
 UHF open shell SCF:
 Using DIIS extrapolation, IDIIS=  1040.
 NGot=  2415919104 LenX=  2415746906 LenY=  2415663521
 Requested convergence on RMS density matrix=1.00D-08 within 200 cycles.
 Requested convergence on MAX density matrix=1.00D-06.
 Requested convergence on             energy=1.00D-06.
 No special actions if energy rises.
 Fock matrices will be formed incrementally for  20 cycles.
 Integral accuracy reduced to 1.0D-05 until final iterations.

 Cycle   1  Pass 0  IDiag  1:
 FoFJK:  IHMeth= 1 ICntrl=       0 DoSepK=T KAlg= 0 I1Cent=           0 FoldK=F
 IRaf=         1 NMat=       1 IRICut=       1 DoRegI=T DoRafI=F ISym2E= 0 IDoP0=0 IntGTp=1.
 FoFCou: FMM=F IPFlag=           0 FMFlag=      100000 FMFlg1=           0
         NFxFlg=           0 DoJE=T BraDBF=F KetDBF=F FulRan=T
         wScrn=  0.000000 ICntrl=       500 IOpCl=  0 I1Cent=           0 NGrid=           0
         NMat0=    1 NMatS0=      1 NMatT0=    0 NMatD0=    1 NMtDS0=    0 NMtDT0=    0
 Symmetry not used in FoFCou.
 E= -1490.44073249323    
 DIIS: error= 4.99D-02 at cycle   1 NSaved=   1.
 NSaved= 1 IEnMin= 1 EnMin= -1490.44073249323     IErMin= 1 ErrMin= 4.99D-02
 ErrMax= 4.99D-02  0.00D+00 EMaxC= 1.00D-01 BMatC= 3.26D+00 BMatP= 3.26D+00
 IDIUse=3 WtCom= 5.01D-01 WtEn= 4.99D-01
 Coeff-Com:  0.100D+01
 Coeff-En:   0.100D+01
 Coeff:      0.100D+01
 Gap=     0.360 Goal=   None    Shift=    0.000
 Gap=     0.320 Goal=   None    Shift=    0.000
 GapD=    0.320 DampG=1.000 DampE=0.500 DampFc=0.5000 IDamp=-1.
 Damping current iteration by 5.00D-01
 RMSDP=7.61D-03 MaxDP=2.86D-01              OVMax= 5.23D-01

 Cycle   2  Pass 0  IDiag  1:
 RMSU=  3.74D-03    CP:  9.72D-01
 E= -1490.64565396522     Delta-E=       -0.204921471993 Rises=F Damp=T
 DIIS: error= 1.76D-02 at cycle   2 NSaved=   2.
 NSaved= 2 IEnMin= 2 EnMin= -1490.64565396522     IErMin= 2 ErrMin= 1.76D-02
 ErrMax= 1.76D-02  0.00D+00 EMaxC= 1.00D-01 BMatC= 4.69D-01 BMatP= 3.26D+00
 IDIUse=3 WtCom= 8.24D-01 WtEn= 1.76D-01
 Coeff-Com: -0.488D-01 0.105D+01
 Coeff-En:   0.169D+00 0.831D+00
 Coeff:     -0.105D-01 0.101D+01
 Gap=     0.428 Goal=   None    Shift=    0.000
 Gap=     0.305 Goal=   None    Shift=    0.000
 RMSDP=2.91D-03 MaxDP=7.82D-02 DE=-2.05D-01 OVMax= 3.63D-01

 Cycle   3  Pass 0  IDiag  1:
 RMSU=  2.87D-03    CP:  9.56D-01  1.05D+00
 E= -1490.89485335991     Delta-E=       -0.249199394691 Rises=F Damp=F
 DIIS: error= 1.83D-02 at cycle   3 NSaved=   3.
 NSaved= 3 IEnMin= 3 EnMin= -1490.89485335991     IErMin= 2 ErrMin= 1.76D-02
 ErrMax= 1.83D-02  0.00D+00 EMaxC= 1.00D-01 BMatC= 3.46D-01 BMatP= 4.69D-01
 IDIUse=3 WtCom= 8.17D-01 WtEn= 1.83D-01
 Coeff-Com: -0.152D+00 0.546D+00 0.606D+00
 Coeff-En:   0.000D+00 0.000D+00 0.100D+01
 Coeff:     -0.124D+00 0.446D+00 0.678D+00
 Gap=     0.313 Goal=   None    Shift=    0.000
 Gap=     0.293 Goal=   None    Shift=    0.000
 RMSDP=2.01D-03 MaxDP=8.57D-02 DE=-2.49D-01 OVMax= 1.77D-01

 Cycle   4  Pass 0  IDiag  1:
 RMSU=  1.45D-03    CP:  9.46D-01  1.26D+00  6.08D-01
 E= -1490.98149400311     Delta-E=       -0.086640643201 Rises=F Damp=F
 DIIS: error= 5.05D-03 at cycle   4 NSaved=   4.
 NSaved= 4 IEnMin= 4 EnMin= -1490.98149400311     IErMin= 4 ErrMin= 5.05D-03
 ErrMax= 5.05D-03  0.00D+00 EMaxC= 1.00D-01 BMatC= 4.85D-02 BMatP= 3.46D-01
 IDIUse=3 WtCom= 9.49D-01 WtEn= 5.05D-02
 Coeff-Com: -0.283D-01 0.520D-01 0.296D+00 0.680D+00
 Coeff-En:   0.000D+00 0.000D+00 0.418D-01 0.958D+00
 Coeff:     -0.269D-01 0.494D-01 0.283D+00 0.695D+00
 Gap=     0.300 Goal=   None    Shift=    0.000
 Gap=     0.281 Goal=   None    Shift=    0.000
 RMSDP=5.96D-04 MaxDP=1.88D-02 DE=-8.66D-02 OVMax= 4.96D-02

 Cycle   5  Pass 0  IDiag  1:
 RMSU=  3.12D-04    CP:  9.46D-01  1.25D+00  7.65D-01  8.41D-01
 E= -1490.99695478215     Delta-E=       -0.015460779042 Rises=F Damp=F
 DIIS: error= 1.82D-03 at cycle   5 NSaved=   5.
 NSaved= 5 IEnMin= 5 EnMin= -1490.99695478215     IErMin= 5 ErrMin= 1.82D-03
 ErrMax= 1.82D-03  0.00D+00 EMaxC= 1.00D-01 BMatC= 2.02D-03 BMatP= 4.85D-02
 IDIUse=3 WtCom= 9.82D-01 WtEn= 1.82D-02
 Coeff-Com:  0.131D-01-0.422D-01-0.528D-01 0.298D-01 0.105D+01
 Coeff-En:   0.000D+00 0.000D+00 0.000D+00 0.000D+00 0.100D+01
 Coeff:      0.128D-01-0.414D-01-0.519D-01 0.292D-01 0.105D+01
 Gap=     0.303 Goal=   None    Shift=    0.000
 Gap=     0.284 Goal=   None    Shift=    0.000
 RMSDP=2.71D-04 MaxDP=1.34D-02 DE=-1.55D-02 OVMax= 3.05D-02

 Cycle   6  Pass 0  IDiag  1:
 RMSU=  1.54D-04    CP:  9.44D-01  1.26D+00  7.67D-01  9.59D-01  1.42D+00
 E= -1490.99937336979     Delta-E=       -0.002418587639 Rises=F Damp=F
 DIIS: error= 8.63D-04 at cycle   6 NSaved=   6.
 NSaved= 6 IEnMin= 6 EnMin= -1490.99937336979     IErMin= 6 ErrMin= 8.63D-04
 ErrMax= 8.63D-04  0.00D+00 EMaxC= 1.00D-01 BMatC= 7.45D-04 BMatP= 2.02D-03
 IDIUse=3 WtCom= 9.91D-01 WtEn= 8.63D-03
 Coeff-Com:  0.110D-01-0.204D-01-0.954D-01-0.193D+00 0.345D+00 0.952D+00
 Coeff-En:   0.000D+00 0.000D+00 0.000D+00 0.000D+00 0.000D+00 0.100D+01
 Coeff:      0.109D-01-0.202D-01-0.946D-01-0.191D+00 0.343D+00 0.953D+00
 Gap=     0.306 Goal=   None    Shift=    0.000
 Gap=     0.288 Goal=   None    Shift=    0.000
 RMSDP=1.70D-04 MaxDP=6.82D-03 DE=-2.42D-03 OVMax= 1.85D-02

 Cycle   7  Pass 0  IDiag  1:
 RMSU=  7.41D-05    CP:  9.44D-01  1.26D+00  7.71D-01  9.97D-01  1.86D+00
                    CP:  1.28D+00
 E= -1491.00022740053     Delta-E=       -0.000854030737 Rises=F Damp=F
 DIIS: error= 4.54D-04 at cycle   7 NSaved=   7.
 NSaved= 7 IEnMin= 7 EnMin= -1491.00022740053     IErMin= 7 ErrMin= 4.54D-04
 ErrMax= 4.54D-04  0.00D+00 EMaxC= 1.00D-01 BMatC= 1.64D-04 BMatP= 7.45D-04
 IDIUse=3 WtCom= 9.95D-01 WtEn= 4.54D-03
 Coeff-Com: -0.180D-02 0.847D-02-0.958D-02-0.568D-01-0.163D+00 0.284D+00
 Coeff-Com:  0.939D+00
 Coeff-En:   0.000D+00 0.000D+00 0.000D+00 0.000D+00 0.000D+00 0.000D+00
 Coeff-En:   0.100D+01
 Coeff:     -0.179D-02 0.844D-02-0.953D-02-0.566D-01-0.163D+00 0.283D+00
 Coeff:      0.939D+00
 Gap=     0.307 Goal=   None    Shift=    0.000
 Gap=     0.289 Goal=   None    Shift=    0.000
 RMSDP=8.01D-05 MaxDP=3.27D-03 DE=-8.54D-04 OVMax= 7.72D-03

 Cycle   8  Pass 0  IDiag  1:
 RMSU=  3.98D-05    CP:  9.44D-01  1.26D+00  7.70D-01  1.01D+00  2.00D+00
                    CP:  1.60D+00  1.04D+00
 E= -1491.00039396351     Delta-E=       -0.000166562982 Rises=F Damp=F
 DIIS: error= 2.34D-04 at cycle   8 NSaved=   8.
 NSaved= 8 IEnMin= 8 EnMin= -1491.00039396351     IErMin= 8 ErrMin= 2.34D-04
 ErrMax= 2.34D-04  0.00D+00 EMaxC= 1.00D-01 BMatC= 3.37D-05 BMatP= 1.64D-04
 IDIUse=3 WtCom= 9.98D-01 WtEn= 2.34D-03
 Coeff-Com: -0.377D-02 0.813D-02 0.199D-01 0.307D-01-0.137D+00-0.138D+00
 Coeff-Com:  0.329D+00 0.891D+00
 Coeff-En:   0.000D+00 0.000D+00 0.000D+00 0.000D+00 0.000D+00 0.000D+00
 Coeff-En:   0.000D+00 0.100D+01
 Coeff:     -0.376D-02 0.811D-02 0.199D-01 0.306D-01-0.137D+00-0.138D+00
 Coeff:      0.328D+00 0.892D+00
 Gap=     0.307 Goal=   None    Shift=    0.000
 Gap=     0.289 Goal=   None    Shift=    0.000
 RMSDP=3.45D-05 MaxDP=1.37D-03 DE=-1.67D-04 OVMax= 3.16D-03

 Cycle   9  Pass 0  IDiag  1:
 RMSU=  1.59D-05    CP:  9.44D-01  1.26D+00  7.67D-01  1.01D+00  2.05D+00
                    CP:  1.69D+00  1.28D+00  1.12D+00
 E= -1491.00042588034     Delta-E=       -0.000031916831 Rises=F Damp=F
 DIIS: error= 1.12D-04 at cycle   9 NSaved=   9.
 NSaved= 9 IEnMin= 9 EnMin= -1491.00042588034     IErMin= 9 ErrMin= 1.12D-04
 ErrMax= 1.12D-04  0.00D+00 EMaxC= 1.00D-01 BMatC= 4.66D-06 BMatP= 3.37D-05
 IDIUse=3 WtCom= 9.99D-01 WtEn= 1.12D-03
 Coeff-Com: -0.820D-03 0.133D-02 0.583D-02 0.141D-01-0.155D-01-0.668D-01
 Coeff-Com: -0.158D-01 0.192D+00 0.886D+00
 Coeff-En:   0.000D+00 0.000D+00 0.000D+00 0.000D+00 0.000D+00 0.000D+00
 Coeff-En:   0.000D+00 0.000D+00 0.100D+01
 Coeff:     -0.819D-03 0.133D-02 0.582D-02 0.141D-01-0.154D-01-0.668D-01
 Coeff:     -0.158D-01 0.192D+00 0.886D+00
 Gap=     0.308 Goal=   None    Shift=    0.000
 Gap=     0.289 Goal=   None    Shift=    0.000
 RMSDP=1.07D-05 MaxDP=4.73D-04 DE=-3.19D-05 OVMax= 1.49D-03

 Cycle  10  Pass 0  IDiag  1:
 RMSU=  6.35D-06    CP:  9.44D-01  1.26D+00  7.67D-01  1.01D+00  2.06D+00
                    CP:  1.71D+00  1.32D+00  1.26D+00  1.26D+00
 E= -1491.00043120769     Delta-E=       -0.000005327352 Rises=F Damp=F
 DIIS: error= 7.74D-05 at cycle  10 NSaved=  10.
 NSaved=10 IEnMin=10 EnMin= -1491.00043120769     IErMin=10 ErrMin= 7.74D-05
 ErrMax= 7.74D-05  0.00D+00 EMaxC= 1.00D-01 BMatC= 1.96D-06 BMatP= 4.66D-06
 IDIUse=1 WtCom= 1.00D+00 WtEn= 0.00D+00
 Coeff-Com:  0.935D-03-0.208D-02-0.477D-02-0.546D-02 0.401D-01 0.204D-01
 Coeff-Com: -0.112D+00-0.234D+00 0.310D+00 0.986D+00
 Coeff:      0.935D-03-0.208D-02-0.477D-02-0.546D-02 0.401D-01 0.204D-01
 Coeff:     -0.112D+00-0.234D+00 0.310D+00 0.986D+00
 Gap=     0.308 Goal=   None    Shift=    0.000
 Gap=     0.290 Goal=   None    Shift=    0.000
 RMSDP=8.76D-06 MaxDP=4.61D-04 DE=-5.33D-06 OVMax= 1.19D-03

 Initial convergence to 1.0D-05 achieved.  Increase integral accuracy.
 Cycle  11  Pass 1  IDiag  1:
 E= -1491.00033339757     Delta-E=        0.000097810129 Rises=F Damp=F
 DIIS: error= 8.06D-05 at cycle   1 NSaved=   1.
 NSaved= 1 IEnMin= 1 EnMin= -1491.00033339757     IErMin= 1 ErrMin= 8.06D-05
 ErrMax= 8.06D-05  0.00D+00 EMaxC= 1.00D-01 BMatC= 5.30D-06 BMatP= 5.30D-06
 IDIUse=1 WtCom= 1.00D+00 WtEn= 0.00D+00
 Coeff-Com:  0.100D+01
 Coeff:      0.100D+01
 Gap=     0.308 Goal=   None    Shift=    0.000
 Gap=     0.290 Goal=   None    Shift=    0.000
 RMSDP=8.76D-06 MaxDP=4.61D-04 DE= 9.78D-05 OVMax= 4.04D-04

 Cycle  12  Pass 1  IDiag  1:
 RMSU=  8.30D-05    CP:  1.00D+00
 E= -1491.00033525152     Delta-E=       -0.000001853959 Rises=F Damp=F
 DIIS: error= 3.35D-05 at cycle   2 NSaved=   2.
 NSaved= 2 IEnMin= 2 EnMin= -1491.00033525152     IErMin= 2 ErrMin= 3.35D-05
 ErrMax= 3.35D-05  0.00D+00 EMaxC= 1.00D-01 BMatC= 3.63D-07 BMatP= 5.30D-06
 IDIUse=1 WtCom= 1.00D+00 WtEn= 0.00D+00
 Coeff-Com: -0.209D-01 0.102D+01
 Coeff:     -0.209D-01 0.102D+01
 Gap=     0.308 Goal=   None    Shift=    0.000
 Gap=     0.290 Goal=   None    Shift=    0.000
 RMSDP=5.87D-06 MaxDP=1.34D-04 DE=-1.85D-06 OVMax= 3.44D-04

 Cycle  13  Pass 1  IDiag  1:
 RMSU=  3.08D-06    CP:  1.00D+00  1.06D+00
 E= -1491.00033567784     Delta-E=       -0.000000426321 Rises=F Damp=F
 DIIS: error= 2.90D-05 at cycle   3 NSaved=   3.
 NSaved= 3 IEnMin= 3 EnMin= -1491.00033567784     IErMin= 3 ErrMin= 2.90D-05
 ErrMax= 2.90D-05  0.00D+00 EMaxC= 1.00D-01 BMatC= 2.62D-07 BMatP= 3.63D-07
 IDIUse=1 WtCom= 1.00D+00 WtEn= 0.00D+00
 Coeff-Com: -0.456D-01 0.421D+00 0.625D+00
 Coeff:     -0.456D-01 0.421D+00 0.625D+00
 Gap=     0.308 Goal=   None    Shift=    0.000
 Gap=     0.290 Goal=   None    Shift=    0.000
 RMSDP=1.62D-06 MaxDP=6.33D-05 DE=-4.26D-07 OVMax= 1.78D-04

 Cycle  14  Pass 1  IDiag  1:
 RMSU=  1.46D-06    CP:  1.00D+00  1.06D+00  1.19D+00
 E= -1491.00033587733     Delta-E=       -0.000000199485 Rises=F Damp=F
 DIIS: error= 1.92D-05 at cycle   4 NSaved=   4.
 NSaved= 4 IEnMin= 4 EnMin= -1491.00033587733     IErMin= 4 ErrMin= 1.92D-05
 ErrMax= 1.92D-05  0.00D+00 EMaxC= 1.00D-01 BMatC= 1.09D-07 BMatP= 2.62D-07
 IDIUse=1 WtCom= 1.00D+00 WtEn= 0.00D+00
 Coeff-Com:  0.220D-01-0.703D+00-0.140D+00 0.182D+01
 Coeff:      0.220D-01-0.703D+00-0.140D+00 0.182D+01
 Gap=     0.308 Goal=   None    Shift=    0.000
 Gap=     0.290 Goal=   None    Shift=    0.000
 RMSDP=3.60D-06 MaxDP=1.71D-04 DE=-1.99D-07 OVMax= 4.18D-04

 Cycle  15  Pass 1  IDiag  1:
 RMSU=  1.52D-06    CP:  1.00D+00  1.07D+00  2.09D+00  2.18D+00
 E= -1491.00033621329     Delta-E=       -0.000000335960 Rises=F Damp=F
 DIIS: error= 8.99D-06 at cycle   5 NSaved=   5.
 NSaved= 5 IEnMin= 5 EnMin= -1491.00033621329     IErMin= 5 ErrMin= 8.99D-06
 ErrMax= 8.99D-06  0.00D+00 EMaxC= 1.00D-01 BMatC= 3.67D-08 BMatP= 1.09D-07
 IDIUse=1 WtCom= 1.00D+00 WtEn= 0.00D+00
 Coeff-Com:  0.290D-01-0.472D+00-0.350D+00 0.734D+00 0.106D+01
 Coeff:      0.290D-01-0.472D+00-0.350D+00 0.734D+00 0.106D+01
 Gap=     0.308 Goal=   None    Shift=    0.000
 Gap=     0.290 Goal=   None    Shift=    0.000
 RMSDP=2.48D-06 MaxDP=1.05D-04 DE=-3.36D-07 OVMax= 2.82D-04

 Cycle  16  Pass 1  IDiag  1:
 RMSU=  7.67D-07    CP:  1.00D+00  1.07D+00  2.64D+00  3.00D+00  1.53D+00
 E= -1491.00033631737     Delta-E=       -0.000000104083 Rises=F Damp=F
 DIIS: error= 2.75D-06 at cycle   6 NSaved=   6.
 NSaved= 6 IEnMin= 6 EnMin= -1491.00033631737     IErMin= 6 ErrMin= 2.75D-06
 ErrMax= 2.75D-06  0.00D+00 EMaxC= 1.00D-01 BMatC= 6.41D-09 BMatP= 3.67D-08
 IDIUse=1 WtCom= 1.00D+00 WtEn= 0.00D+00
 Coeff-Com:  0.828D-03 0.615D-01-0.311D-01-0.249D+00 0.176D+00 0.104D+01
 Coeff:      0.828D-03 0.615D-01-0.311D-01-0.249D+00 0.176D+00 0.104D+01
 Gap=     0.308 Goal=   None    Shift=    0.000
 Gap=     0.290 Goal=   None    Shift=    0.000
 RMSDP=8.31D-07 MaxDP=3.64D-05 DE=-1.04D-07 OVMax= 1.01D-04

 Cycle  17  Pass 1  IDiag  1:
 RMSU=  4.29D-07    CP:  1.00D+00  1.07D+00  2.79D+00  3.00D+00  1.83D+00
                    CP:  1.39D+00
 E= -1491.00033633087     Delta-E=       -0.000000013502 Rises=F Damp=F
 DIIS: error= 1.68D-06 at cycle   7 NSaved=   7.
 NSaved= 7 IEnMin= 7 EnMin= -1491.00033633087     IErMin= 7 ErrMin= 1.68D-06
 ErrMax= 1.68D-06  0.00D+00 EMaxC= 1.00D-01 BMatC= 2.69D-09 BMatP= 6.41D-09
 IDIUse=1 WtCom= 1.00D+00 WtEn= 0.00D+00
 Coeff-Com: -0.825D-02 0.172D+00 0.911D-01-0.337D+00-0.235D+00 0.485D+00
 Coeff-Com:  0.832D+00
 Coeff:     -0.825D-02 0.172D+00 0.911D-01-0.337D+00-0.235D+00 0.485D+00
 Coeff:      0.832D+00
 Gap=     0.308 Goal=   None    Shift=    0.000
 Gap=     0.290 Goal=   None    Shift=    0.000
 RMSDP=3.62D-07 MaxDP=1.49D-05 DE=-1.35D-08 OVMax= 4.28D-05

 Cycle  18  Pass 1  IDiag  1:
 RMSU=  1.71D-07    CP:  1.00D+00  1.07D+00  2.83D+00  3.00D+00  1.93D+00
                    CP:  1.63D+00  1.33D+00
 E= -1491.00033633409     Delta-E=       -0.000000003218 Rises=F Damp=F
 DIIS: error= 7.02D-07 at cycle   8 NSaved=   8.
 NSaved= 8 IEnMin= 8 EnMin= -1491.00033633409     IErMin= 8 ErrMin= 7.02D-07
 ErrMax= 7.02D-07  0.00D+00 EMaxC= 1.00D-01 BMatC= 4.13D-10 BMatP= 2.69D-09
 IDIUse=1 WtCom= 1.00D+00 WtEn= 0.00D+00
 Coeff-Com: -0.133D-02 0.692D-02 0.168D-01 0.228D-01-0.676D-01-0.211D+00
 Coeff-Com:  0.294D-01 0.120D+01
 Coeff:     -0.133D-02 0.692D-02 0.168D-01 0.228D-01-0.676D-01-0.211D+00
 Coeff:      0.294D-01 0.120D+01
 Gap=     0.308 Goal=   None    Shift=    0.000
 Gap=     0.290 Goal=   None    Shift=    0.000
 RMSDP=1.98D-07 MaxDP=8.31D-06 DE=-3.22D-09 OVMax= 2.95D-05

 Cycle  19  Pass 1  IDiag  1:
 RMSU=  9.70D-08    CP:  1.00D+00  1.07D+00  2.85D+00  3.00D+00  1.96D+00
                    CP:  1.72D+00  1.58D+00  1.49D+00
 E= -1491.00033633490     Delta-E=       -0.000000000811 Rises=F Damp=F
 DIIS: error= 2.65D-07 at cycle   9 NSaved=   9.
 NSaved= 9 IEnMin= 9 EnMin= -1491.00033633490     IErMin= 9 ErrMin= 2.65D-07
 ErrMax= 2.65D-07  0.00D+00 EMaxC= 1.00D-01 BMatC= 1.78D-10 BMatP= 4.13D-10
 IDIUse=1 WtCom= 1.00D+00 WtEn= 0.00D+00
 Coeff-Com:  0.116D-02-0.341D-01-0.129D-01 0.859D-01 0.195D-01-0.210D+00
 Coeff-Com: -0.181D+00 0.618D+00 0.714D+00
 Coeff:      0.116D-02-0.341D-01-0.129D-01 0.859D-01 0.195D-01-0.210D+00
 Coeff:     -0.181D+00 0.618D+00 0.714D+00
 Gap=     0.308 Goal=   None    Shift=    0.000
 Gap=     0.290 Goal=   None    Shift=    0.000
 RMSDP=7.61D-08 MaxDP=3.30D-06 DE=-8.11D-10 OVMax= 1.14D-05

 Cycle  20  Pass 1  IDiag  1:
 RMSU=  3.69D-08    CP:  1.00D+00  1.07D+00  2.86D+00  3.00D+00  1.96D+00
                    CP:  1.74D+00  1.67D+00  1.75D+00  1.22D+00
 E= -1491.00033633506     Delta-E=       -0.000000000154 Rises=F Damp=F
 DIIS: error= 1.25D-07 at cycle  10 NSaved=  10.
 NSaved=10 IEnMin=10 EnMin= -1491.00033633506     IErMin=10 ErrMin= 1.25D-07
 ErrMax= 1.25D-07  0.00D+00 EMaxC= 1.00D-01 BMatC= 2.90D-11 BMatP= 1.78D-10
 IDIUse=1 WtCom= 1.00D+00 WtEn= 0.00D+00
 Coeff-Com:  0.744D-03-0.147D-01-0.920D-02 0.284D-01 0.228D-01-0.327D-01
 Coeff-Com: -0.817D-01-0.301D-01 0.277D+00 0.839D+00
 Coeff:      0.744D-03-0.147D-01-0.920D-02 0.284D-01 0.228D-01-0.327D-01
 Coeff:     -0.817D-01-0.301D-01 0.277D+00 0.839D+00
 Gap=     0.308 Goal=   None    Shift=    0.000
 Gap=     0.290 Goal=   None    Shift=    0.000
 RMSDP=3.64D-08 MaxDP=1.55D-06 DE=-1.54D-10 OVMax= 4.90D-06

 Cycle  21  Pass 1  IDiag  1:
 RMSU=  1.93D-08    CP:  1.00D+00  1.07D+00  2.86D+00  3.00D+00  1.97D+00
                    CP:  1.75D+00  1.70D+00  1.86D+00  1.38D+00  1.13D+00
 E= -1491.00033633508     Delta-E=       -0.000000000020 Rises=F Damp=F
 DIIS: error= 6.71D-08 at cycle  11 NSaved=  11.
 NSaved=11 IEnMin=11 EnMin= -1491.00033633508     IErMin=11 ErrMin= 6.71D-08
 ErrMax= 6.71D-08  0.00D+00 EMaxC= 1.00D-01 BMatC= 5.42D-12 BMatP= 2.90D-11
 IDIUse=1 WtCom= 1.00D+00 WtEn= 0.00D+00
 Coeff-Com: -0.292D-04 0.325D-02-0.134D-03-0.110D-01 0.306D-02 0.386D-01
 Coeff-Com:  0.139D-01-0.150D+00-0.768D-01 0.257D+00 0.923D+00
 Coeff:     -0.292D-04 0.325D-02-0.134D-03-0.110D-01 0.306D-02 0.386D-01
 Coeff:      0.139D-01-0.150D+00-0.768D-01 0.257D+00 0.923D+00
 Gap=     0.308 Goal=   None    Shift=    0.000
 Gap=     0.290 Goal=   None    Shift=    0.000
 RMSDP=1.84D-08 MaxDP=7.47D-07 DE=-2.05D-11 OVMax= 2.68D-06

 Cycle  22  Pass 1  IDiag  1:
 RMSU=  8.12D-09    CP:  1.00D+00  1.07D+00  2.86D+00  3.00D+00  1.97D+00
                    CP:  1.75D+00  1.72D+00  1.90D+00  1.46D+00  1.33D+00
                    CP:  1.35D+00
 E= -1491.00033633509     Delta-E=       -0.000000000009 Rises=F Damp=F
 DIIS: error= 2.93D-08 at cycle  12 NSaved=  12.
 NSaved=12 IEnMin=12 EnMin= -1491.00033633509     IErMin=12 ErrMin= 2.93D-08
 ErrMax= 2.93D-08  0.00D+00 EMaxC= 1.00D-01 BMatC= 8.96D-13 BMatP= 5.42D-12
 IDIUse=1 WtCom= 1.00D+00 WtEn= 0.00D+00
 Coeff-Com: -0.167D-03 0.376D-02 0.183D-02-0.810D-02-0.394D-02 0.132D-01
 Coeff-Com:  0.188D-01-0.154D-01-0.707D-01-0.150D+00 0.118D+00 0.109D+01
 Coeff:     -0.167D-03 0.376D-02 0.183D-02-0.810D-02-0.394D-02 0.132D-01
 Coeff:      0.188D-01-0.154D-01-0.707D-01-0.150D+00 0.118D+00 0.109D+01
 Gap=     0.308 Goal=   None    Shift=    0.000
 Gap=     0.290 Goal=   None    Shift=    0.000
 RMSDP=9.50D-09 MaxDP=3.81D-07 DE=-8.64D-12 OVMax= 1.37D-06

 SCF Done:  E(UwB97XD) =  -1491.00033634     A.U. after   22 cycles
            NFock= 22  Conv=0.95D-08     -V/T= 2.0053
 <Sx>= 0.0000 <Sy>= 0.0000 <Sz>= 1.0000 <S**2>= 2.0699 S= 1.0231
 <L.S>=  0.00000000000    
 KE= 1.483169478117D+03 PE=-5.982404956021D+03 EE= 1.772357435024D+03
 Annihilation of the first spin contaminant:
 S**2 before annihilation     2.0699,   after     2.0030
 Leave Link  502 at Fri Mar  6 17:32:10 2026, MaxMem=  2415919104 cpu:             279.9 elap:              27.5
 (Enter /prod/precompiled/gaussian/16c2/g16/l508.exe)
 QCSCF skips out because SCF is already converged.
 Leave Link  508 at Fri Mar  6 17:32:10 2026, MaxMem=  2415919104 cpu:               0.1 elap:               0.0
 (Enter /prod/precompiled/gaussian/16c2/g16/l801.exe)
 DoSCS=F DFT=T ScalE2(SS,OS)=  1.000000  1.000000
 Range of M.O.s used for correlation:     1   272
 NBasis=   272 NAE=    65 NBE=    63 NFC=     0 NFV=     0
 NROrb=    272 NOA=    65 NOB=    63 NVA=   207 NVB=   209

 **** Warning!!: The largest alpha MO coefficient is  0.10996397D+02


 **** Warning!!: The largest beta MO coefficient is  0.11556644D+02

 Leave Link  801 at Fri Mar  6 17:32:10 2026, MaxMem=  2415919104 cpu:               0.1 elap:               0.0
 (Enter /prod/precompiled/gaussian/16c2/g16/l1101.exe)
 Using compressed storage, NAtomX=    24.
 Will process     25 centers per pass.
   1 Symmetry operations used in ECPInt.
 ECPInt:  NShTT=    7750 NPrTT=   30142 LenC2=    7120 LenP2D=   19391.
 LDataN:  DoStor=T MaxTD1= 5 Len=  102
 R6Disp: Adding Grimme-D2 dispersion energy 1st derivatives to the gradient.
 Leave Link 1101 at Fri Mar  6 17:32:11 2026, MaxMem=  2415919104 cpu:               1.9 elap:               0.5
 (Enter /prod/precompiled/gaussian/16c2/g16/l1102.exe)
 Symmetrizing basis deriv contribution to polar:
 IMax=3 JMax=2 DiffMx= 0.00D+00
 Leave Link 1102 at Fri Mar  6 17:32:11 2026, MaxMem=  2415919104 cpu:               0.1 elap:               0.1
 (Enter /prod/precompiled/gaussian/16c2/g16/l1110.exe)
 Forming Gx(P) for the SCF density, NAtomX=    24.
 Integral derivatives from FoFJK, PRISM(SPDF).
 Do as many integral derivatives as possible in FoFJK.
 G2DrvN: MDV=    2415916544.
 G2DrvN: will do    25 centers at a time, making    1 passes.
 Calling FoFCou, ICntrl=  3107 FMM=F I1Cent=   0 AccDes= 0.00D+00.
 FoFJK:  IHMeth= 1 ICntrl=    3107 DoSepK=T KAlg= 0 I1Cent=           0 FoldK=F
 IRaf=         1 NMat=       1 IRICut=       1 DoRegI=T DoRafI=F ISym2E= 0 IDoP0=0 IntGTp=1.
 FoFCou: FMM=F IPFlag=           0 FMFlag=      100000 FMFlg1=           0
         NFxFlg=           0 DoJE=F BraDBF=F KetDBF=F FulRan=T
         wScrn=  0.000000 ICntrl=      3507 IOpCl=  0 I1Cent=           0 NGrid=           0
         NMat0=    1 NMatS0=      1 NMatT0=    0 NMatD0=    1 NMtDS0=    0 NMtDT0=    0
 Symmetry not used in FoFCou.
 End of G2Drv F.D. properties file   721 does not exist.
 End of G2Drv F.D. properties file   722 does not exist.
 End of G2Drv F.D. properties file   788 does not exist.
 Leave Link 1110 at Fri Mar  6 17:32:43 2026, MaxMem=  2415919104 cpu:             371.7 elap:              31.6
 (Enter /prod/precompiled/gaussian/16c2/g16/l1002.exe)
 Minotr:  UHF open shell wavefunction.
          IDoAtm=111111111111111111111111
          Direct CPHF calculation.
          Differentiating once with respect to electric field.
                with respect to dipole field.
          Differentiating once with respect to nuclear coordinates.
          Requested convergence is 1.0D-08 RMS, and 1.0D-07 maximum.
          Secondary convergence is 1.0D-12 RMS, and 1.0D-12 maximum.
          NewPWx=T KeepS1=F KeepF1=F KeepIn=T MapXYZ=F SortEE=F KeepMc=T.
         7195 words used for storage of precomputed grid.
 Two-electron integral symmetry not used.
          MDV=    2415919104 using IRadAn=       1.
          Solving linear equations simultaneously, MaxMat=     384.
 FoF2E skips out because all densities are zero.
 CalDSu exits because no D1Ps are significant.
 FoFJK:  IHMeth= 1 ICntrl=       0 DoSepK=T KAlg= 0 I1Cent=           0 FoldK=F
 IRaf=         1 NMat=      72 IRICut=       1 DoRegI=T DoRafI=F ISym2E= 0 IDoP0=3 IntGTp=3.
 FoFCou: FMM=F IPFlag=           0 FMFlag=      100000 FMFlg1=           0
         NFxFlg=           0 DoJE=F BraDBF=F KetDBF=F FulRan=T
         wScrn=  0.000000 ICntrl=       500 IOpCl=  0 I1Cent=           0 NGrid=           0
         NMat0=   72 NMatS0=     72 NMatT0=    0 NMatD0=   72 NMtDS0=    0 NMtDT0=    0
 Symmetry not used in FoFCou.
          There are    75 degrees of freedom in the 1st order CPHF.  IDoFFX=6 NUNeed=     3.
     72 vectors produced by pass  0 Test12= 3.55D-14 1.33D-09 XBig12= 2.04D+02 4.76D+00.
 AX will form    72 AO Fock derivatives at one time.
     72 vectors produced by pass  1 Test12= 3.55D-14 1.33D-09 XBig12= 2.01D+01 6.68D-01.
     72 vectors produced by pass  2 Test12= 3.55D-14 1.33D-09 XBig12= 1.25D+00 1.55D-01.
     72 vectors produced by pass  3 Test12= 3.55D-14 1.33D-09 XBig12= 3.47D-02 2.01D-02.
     72 vectors produced by pass  4 Test12= 3.55D-14 1.33D-09 XBig12= 7.55D-04 2.57D-03.
     72 vectors produced by pass  5 Test12= 3.55D-14 1.33D-09 XBig12= 1.05D-05 3.38D-04.
     72 vectors produced by pass  6 Test12= 3.55D-14 1.33D-09 XBig12= 1.11D-07 2.52D-05.
     52 vectors produced by pass  7 Test12= 3.55D-14 1.33D-09 XBig12= 9.69D-10 2.61D-06.
     22 vectors produced by pass  8 Test12= 3.55D-14 1.33D-09 XBig12= 7.73D-12 2.03D-07.
      3 vectors produced by pass  9 Test12= 3.55D-14 1.33D-09 XBig12= 8.00D-14 1.83D-08.
      3 vectors produced by pass 10 Test12= 3.55D-14 1.33D-09 XBig12= 7.21D-16 1.84D-09.
 InvSVY:  IOpt=1 It=  1 EMax= 7.11D-15
 Solved reduced A of dimension   584 with    75 vectors.
 FullF1:  Do perturbations      1 to       3.
 Isotropic polarizability for W=    0.000000      174.05 Bohr**3.
 End of Minotr F.D. properties file   721 does not exist.
 End of Minotr F.D. properties file   722 does not exist.
 End of Minotr F.D. properties file   788 does not exist.
 Leave Link 1002 at Fri Mar  6 17:34:13 2026, MaxMem=  2415919104 cpu:             923.4 elap:              90.1
 (Enter /prod/precompiled/gaussian/16c2/g16/l601.exe)
 Copying SCF densities to generalized density rwf, IOpCl= 1 IROHF=0.

 **********************************************************************

            Population analysis using the SCF Density.

 **********************************************************************

 Alpha  occ. eigenvalues -- -101.68434-101.68432 -14.50718 -14.50700 -10.37072
 Alpha  occ. eigenvalues --  -10.37071 -10.36168 -10.36165 -10.32062 -10.32062
 Alpha  occ. eigenvalues --  -10.31942 -10.31941 -10.31810 -10.31809 -10.31538
 Alpha  occ. eigenvalues --  -10.31538  -9.59190  -9.59189  -7.34564  -7.34563
 Alpha  occ. eigenvalues --   -7.33628  -7.33627  -7.33577  -7.33576  -1.14948
 Alpha  occ. eigenvalues --   -1.00962  -0.99351  -0.95434  -0.94175  -0.92168
 Alpha  occ. eigenvalues --   -0.86184  -0.84001  -0.83344  -0.79178  -0.73392
 Alpha  occ. eigenvalues --   -0.71398  -0.71352  -0.67036  -0.64567  -0.60271
 Alpha  occ. eigenvalues --   -0.59431  -0.58699  -0.58543  -0.54289  -0.54020
 Alpha  occ. eigenvalues --   -0.53859  -0.52483  -0.52394  -0.52372  -0.48716
 Alpha  occ. eigenvalues --   -0.48397  -0.47158  -0.46687  -0.44841  -0.44452
 Alpha  occ. eigenvalues --   -0.43022  -0.42765  -0.41151  -0.40273  -0.37296
 Alpha  occ. eigenvalues --   -0.36575  -0.33832  -0.33662  -0.28079  -0.26401
 Alpha virt. eigenvalues --    0.04370   0.04406   0.05543   0.06936   0.11391
 Alpha virt. eigenvalues --    0.11589   0.16101   0.16146   0.18277   0.18476
 Alpha virt. eigenvalues --    0.21619   0.21712   0.21868   0.22365   0.22807
 Alpha virt. eigenvalues --    0.22809   0.27592   0.29774   0.33508   0.33830
 Alpha virt. eigenvalues --    0.34157   0.34677   0.35201   0.35938   0.37077
 Alpha virt. eigenvalues --    0.38450   0.41448   0.43129   0.45234   0.46118
 Alpha virt. eigenvalues --    0.46662   0.47690   0.49001   0.50409   0.50649
 Alpha virt. eigenvalues --    0.51456   0.53679   0.53836   0.54134   0.54694
 Alpha virt. eigenvalues --    0.55245   0.56668   0.57379   0.58982   0.59262
 Alpha virt. eigenvalues --    0.60710   0.60804   0.60891   0.61204   0.62432
 Alpha virt. eigenvalues --    0.63888   0.65736   0.67054   0.67444   0.69008
 Alpha virt. eigenvalues --    0.69828   0.71362   0.71417   0.72595   0.73506
 Alpha virt. eigenvalues --    0.73810   0.74049   0.74104   0.74782   0.75757
 Alpha virt. eigenvalues --    0.77618   0.78700   0.78744   0.79338   0.79419
 Alpha virt. eigenvalues --    0.79908   0.81757   0.81931   0.82569   0.83158
 Alpha virt. eigenvalues --    0.84355   0.86361   0.86700   0.87321   0.87984
 Alpha virt. eigenvalues --    0.89236   0.90345   0.90744   0.92138   0.93302
 Alpha virt. eigenvalues --    0.94136   0.95763   0.96722   0.97850   1.01877
 Alpha virt. eigenvalues --    1.01906   1.03747   1.03835   1.05837   1.09175
 Alpha virt. eigenvalues --    1.10487   1.14092   1.20126   1.20872   1.23718
 Alpha virt. eigenvalues --    1.25558   1.26282   1.26827   1.27446   1.27668
 Alpha virt. eigenvalues --    1.31116   1.31313   1.33045   1.33315   1.33874
 Alpha virt. eigenvalues --    1.33950   1.36102   1.36199   1.37933   1.41516
 Alpha virt. eigenvalues --    1.44127   1.44168   1.46598   1.50233   1.51894
 Alpha virt. eigenvalues --    1.53287   1.57897   1.59294   1.60281   1.61391
 Alpha virt. eigenvalues --    1.72675   1.74243   1.77664   1.77731   1.78023
 Alpha virt. eigenvalues --    1.78047   1.80617   1.81175   1.83613   1.83745
 Alpha virt. eigenvalues --    1.84002   1.84474   1.85556   1.86390   1.88227
 Alpha virt. eigenvalues --    1.89412   1.90826   1.91544   1.96029   1.97318
 Alpha virt. eigenvalues --    1.98447   2.00765   2.02273   2.02308   2.02344
 Alpha virt. eigenvalues --    2.04861   2.07024   2.07533   2.10156   2.11721
 Alpha virt. eigenvalues --    2.15225   2.17280   2.17576   2.20679   2.21339
 Alpha virt. eigenvalues --    2.21718   2.21804   2.23618   2.28695   2.31317
 Alpha virt. eigenvalues --    2.31352   2.31879   2.33791   2.35463   2.35669
 Alpha virt. eigenvalues --    2.36743   2.39682   2.39812   2.43253   2.48225
 Alpha virt. eigenvalues --    2.48511   2.53097   2.56811   2.59143   2.59683
 Alpha virt. eigenvalues --    2.66908   2.66976   2.68090   2.70054   2.70517
 Alpha virt. eigenvalues --    2.70781   2.73820   2.79785   2.80040   2.80789
 Alpha virt. eigenvalues --    2.86370   2.88127   2.89935   2.90311   2.95803
 Alpha virt. eigenvalues --    2.99383   3.00695   3.07053   3.13314   3.15611
 Alpha virt. eigenvalues --    3.22273   3.25649   3.28510   3.41168   3.60119
 Alpha virt. eigenvalues --    3.67657   3.68715
  Beta  occ. eigenvalues -- -101.68408-101.68407 -14.49225 -14.49196 -10.36787
  Beta  occ. eigenvalues --  -10.36786 -10.36273 -10.36270 -10.32191 -10.32191
  Beta  occ. eigenvalues --  -10.31715 -10.31715 -10.31672 -10.31671 -10.31573
  Beta  occ. eigenvalues --  -10.31572  -9.59162  -9.59161  -7.34563  -7.34562
  Beta  occ. eigenvalues --   -7.33551  -7.33550  -7.33533  -7.33531  -1.11616
  Beta  occ. eigenvalues --   -1.00330  -0.98866  -0.94717  -0.93945  -0.90923
  Beta  occ. eigenvalues --   -0.85720  -0.83807  -0.83150  -0.77465  -0.72352
  Beta  occ. eigenvalues --   -0.70963  -0.70961  -0.66560  -0.63878  -0.59507
  Beta  occ. eigenvalues --   -0.58835  -0.57698  -0.57331  -0.53956  -0.53671
  Beta  occ. eigenvalues --   -0.52288  -0.52258  -0.51240  -0.50893  -0.47094
  Beta  occ. eigenvalues --   -0.46616  -0.46215  -0.46028  -0.43899  -0.43042
  Beta  occ. eigenvalues --   -0.42110  -0.42099  -0.40083  -0.39382  -0.34589
  Beta  occ. eigenvalues --   -0.34031  -0.33085  -0.32669
  Beta virt. eigenvalues --   -0.03713  -0.02637   0.05084   0.05141   0.08062
  Beta virt. eigenvalues --    0.09721   0.12161   0.12179   0.16254   0.16296
  Beta virt. eigenvalues --    0.18388   0.18571   0.21754   0.21865   0.22550
  Beta virt. eigenvalues --    0.22660   0.23027   0.23563   0.27987   0.31233
  Beta virt. eigenvalues --    0.34017   0.34107   0.34443   0.34781   0.35491
  Beta virt. eigenvalues --    0.35999   0.37248   0.38781   0.41885   0.43458
  Beta virt. eigenvalues --    0.45614   0.46275   0.46899   0.47962   0.49517
  Beta virt. eigenvalues --    0.50617   0.51066   0.51775   0.54039   0.54135
  Beta virt. eigenvalues --    0.54435   0.54866   0.55719   0.56892   0.57691
  Beta virt. eigenvalues --    0.59502   0.59673   0.61045   0.61168   0.61220
  Beta virt. eigenvalues --    0.62028   0.63386   0.64707   0.66191   0.67537
  Beta virt. eigenvalues --    0.67875   0.69343   0.69950   0.71624   0.71765
  Beta virt. eigenvalues --    0.72783   0.73625   0.74055   0.74347   0.74669
  Beta virt. eigenvalues --    0.75084   0.76089   0.78083   0.78934   0.79087
  Beta virt. eigenvalues --    0.79355   0.79677   0.80143   0.81969   0.82757
  Beta virt. eigenvalues --    0.83677   0.83781   0.84457   0.86635   0.87126
  Beta virt. eigenvalues --    0.87810   0.88473   0.89581   0.90538   0.91010
  Beta virt. eigenvalues --    0.92368   0.93906   0.94682   0.96391   0.97158
  Beta virt. eigenvalues --    0.98917   1.02515   1.02985   1.04174   1.04241
  Beta virt. eigenvalues --    1.06949   1.09969   1.10791   1.14282   1.20927
  Beta virt. eigenvalues --    1.21499   1.24430   1.25955   1.26576   1.27257
  Beta virt. eigenvalues --    1.28134   1.28352   1.31415   1.31682   1.33316
  Beta virt. eigenvalues --    1.33479   1.34022   1.34145   1.36298   1.36458
  Beta virt. eigenvalues --    1.38175   1.41798   1.45020   1.45115   1.47102
  Beta virt. eigenvalues --    1.50680   1.52477   1.54007   1.58088   1.59541
  Beta virt. eigenvalues --    1.60839   1.62002   1.72806   1.74365   1.77805
  Beta virt. eigenvalues --    1.77848   1.78186   1.78209   1.80999   1.81627
  Beta virt. eigenvalues --    1.83842   1.83944   1.84237   1.84744   1.85740
  Beta virt. eigenvalues --    1.86543   1.88621   1.89519   1.91047   1.92023
  Beta virt. eigenvalues --    1.96803   1.97865   1.98960   2.01405   2.02474
  Beta virt. eigenvalues --    2.02474   2.02861   2.04799   2.07866   2.09199
  Beta virt. eigenvalues --    2.10807   2.12576   2.16127   2.18736   2.19774
  Beta virt. eigenvalues --    2.21579   2.21886   2.22051   2.23038   2.24266
  Beta virt. eigenvalues --    2.29412   2.31780   2.31824   2.32496   2.34409
  Beta virt. eigenvalues --    2.35781   2.35941   2.37366   2.39954   2.40085
  Beta virt. eigenvalues --    2.45034   2.48916   2.49645   2.54315   2.57881
  Beta virt. eigenvalues --    2.60584   2.61431   2.67301   2.67740   2.68826
  Beta virt. eigenvalues --    2.70556   2.70912   2.71531   2.76395   2.79865
  Beta virt. eigenvalues --    2.80117   2.82584   2.86838   2.88532   2.90043
  Beta virt. eigenvalues --    2.90613   2.96898   3.00134   3.01824   3.07542
  Beta virt. eigenvalues --    3.13638   3.15774   3.22760   3.27683   3.29382
  Beta virt. eigenvalues --    3.43195   3.62107   3.68089   3.69616
          Condensed to atoms (all electrons):
               1          2          3          4          5          6
     1  C    5.069413   0.184589  -0.053938   0.086274  -0.134213   0.092825
     2  C    0.184589   5.356631   0.255186   0.335082   0.084890  -0.146050
     3  Cl  -0.053938   0.255186  16.912925  -0.053732   0.002671   0.000675
     4  C    0.086274   0.335082  -0.053732   4.975473   0.305821   0.077127
     5  C   -0.134213   0.084890   0.002671   0.305821   5.076238   0.266991
     6  C    0.092825  -0.146050   0.000675   0.077127   0.266991   5.095494
     7  C    0.336568   0.036652   0.001394  -0.103643   0.072273   0.287595
     8  N    0.424082  -0.073177  -0.007516   0.005588  -0.000389   0.008288
     9  N   -0.042054  -0.020550  -0.005187  -0.000023   0.000019  -0.000293
    10  C   -0.001740   0.002131   0.006603  -0.000029  -0.000004   0.000027
    11  C    0.002133  -0.000337   0.002941   0.000004  -0.000000  -0.000006
    12  Cl   0.006730   0.002879   0.000093  -0.000401   0.000074  -0.000294
    13  C   -0.000029   0.000005  -0.000409  -0.000000   0.000000  -0.000000
    14  C   -0.000004  -0.000000   0.000076   0.000000  -0.000000   0.000000
    15  C    0.000027  -0.000006  -0.000301  -0.000000   0.000000  -0.000000
    16  C   -0.000794   0.000153   0.000591  -0.000001   0.000000   0.000000
    17  H    0.016034  -0.062275   0.001514   0.438632  -0.058404   0.012513
    18  H   -0.001700   0.013937  -0.000118  -0.060724   0.445677  -0.064631
    19  H    0.013195  -0.001760   0.000007   0.012505  -0.065397   0.447700
    20  H   -0.060788   0.019126  -0.000071  -0.002954   0.013338  -0.069521
    21  H    0.000001  -0.000000  -0.000002   0.000000  -0.000000   0.000000
    22  H    0.000000   0.000000   0.000000  -0.000000   0.000000  -0.000000
    23  H   -0.000000   0.000000  -0.000001   0.000000  -0.000000   0.000000
    24  H    0.000013   0.000003   0.000321   0.000000  -0.000000  -0.000000
               7          8          9         10         11         12
     1  C    0.336568   0.424082  -0.042054  -0.001740   0.002133   0.006730
     2  C    0.036652  -0.073177  -0.020550   0.002131  -0.000337   0.002879
     3  Cl   0.001394  -0.007516  -0.005187   0.006603   0.002941   0.000093
     4  C   -0.103643   0.005588  -0.000023  -0.000029   0.000004  -0.000401
     5  C    0.072273  -0.000389   0.000019  -0.000004  -0.000000   0.000074
     6  C    0.287595   0.008288  -0.000293   0.000027  -0.000006  -0.000294
     7  C    5.069645  -0.081750   0.009324  -0.000796   0.000152   0.000549
     8  N   -0.081750   6.644467   0.209932  -0.042005  -0.020557  -0.005178
     9  N    0.009324   0.209932   6.644674   0.424102  -0.073136  -0.007524
    10  C   -0.000796  -0.042005   0.424102   5.069587   0.184389  -0.053970
    11  C    0.000152  -0.020557  -0.073136   0.184389   5.356821   0.255248
    12  Cl   0.000549  -0.005178  -0.007524  -0.053970   0.255248  16.912830
    13  C   -0.000001  -0.000022   0.005591   0.086346   0.334967  -0.053738
    14  C    0.000000   0.000018  -0.000389  -0.134257   0.084935   0.002671
    15  C    0.000000  -0.000293   0.008294   0.092854  -0.146081   0.000675
    16  C    0.000003   0.009321  -0.081780   0.336507   0.036679   0.001393
    17  H   -0.002085  -0.000074   0.000011   0.000001  -0.000000  -0.000002
    18  H    0.012473   0.000005  -0.000000   0.000000   0.000000   0.000000
    19  H   -0.061266  -0.000114   0.000003  -0.000000   0.000000  -0.000001
    20  H    0.445811  -0.001420  -0.000234   0.000014   0.000003   0.000318
    21  H   -0.000000   0.000011  -0.000074   0.016040  -0.062270   0.001512
    22  H    0.000000  -0.000000   0.000005  -0.001700   0.013938  -0.000118
    23  H    0.000000   0.000003  -0.000114   0.013197  -0.001760   0.000007
    24  H    0.000001  -0.000234  -0.001417  -0.060794   0.019124  -0.000071
              13         14         15         16         17         18
     1  C   -0.000029  -0.000004   0.000027  -0.000794   0.016034  -0.001700
     2  C    0.000005  -0.000000  -0.000006   0.000153  -0.062275   0.013937
     3  Cl  -0.000409   0.000076  -0.000301   0.000591   0.001514  -0.000118
     4  C   -0.000000   0.000000  -0.000000  -0.000001   0.438632  -0.060724
     5  C    0.000000  -0.000000   0.000000   0.000000  -0.058404   0.445677
     6  C   -0.000000   0.000000  -0.000000   0.000000   0.012513  -0.064631
     7  C   -0.000001   0.000000   0.000000   0.000003  -0.002085   0.012473
     8  N   -0.000022   0.000018  -0.000293   0.009321  -0.000074   0.000005
     9  N    0.005591  -0.000389   0.008294  -0.081780   0.000011  -0.000000
    10  C    0.086346  -0.134257   0.092854   0.336507   0.000001   0.000000
    11  C    0.334967   0.084935  -0.146081   0.036679  -0.000000   0.000000
    12  Cl  -0.053738   0.002671   0.000675   0.001393  -0.000002   0.000000
    13  C    4.975595   0.305755   0.077168  -0.103687   0.000000  -0.000000
    14  C    0.305755   5.076350   0.266917   0.072319  -0.000000   0.000000
    15  C    0.077168   0.266917   5.095618   0.287491   0.000000  -0.000000
    16  C   -0.103687   0.072319   0.287491   5.069732  -0.000000   0.000000
    17  H    0.000000  -0.000000   0.000000  -0.000000   0.642140  -0.011355
    18  H   -0.000000   0.000000  -0.000000   0.000000  -0.011355   0.644939
    19  H    0.000000  -0.000000   0.000000   0.000000  -0.000203  -0.010489
    20  H    0.000000  -0.000000  -0.000000   0.000001   0.000018  -0.000194
    21  H    0.438630  -0.058414   0.012513  -0.002085   0.000000  -0.000000
    22  H   -0.060723   0.445674  -0.064634   0.012473  -0.000000   0.000000
    23  H    0.012506  -0.065404   0.447696  -0.061269   0.000000  -0.000000
    24  H   -0.002954   0.013338  -0.069527   0.445825  -0.000000   0.000000
              19         20         21         22         23         24
     1  C    0.013195  -0.060788   0.000001   0.000000  -0.000000   0.000013
     2  C   -0.001760   0.019126  -0.000000   0.000000   0.000000   0.000003
     3  Cl   0.000007  -0.000071  -0.000002   0.000000  -0.000001   0.000321
     4  C    0.012505  -0.002954   0.000000  -0.000000   0.000000   0.000000
     5  C   -0.065397   0.013338  -0.000000   0.000000  -0.000000  -0.000000
     6  C    0.447700  -0.069521   0.000000  -0.000000   0.000000  -0.000000
     7  C   -0.061266   0.445811  -0.000000   0.000000   0.000000   0.000001
     8  N   -0.000114  -0.001420   0.000011  -0.000000   0.000003  -0.000234
     9  N    0.000003  -0.000234  -0.000074   0.000005  -0.000114  -0.001417
    10  C   -0.000000   0.000014   0.016040  -0.001700   0.013197  -0.060794
    11  C    0.000000   0.000003  -0.062270   0.013938  -0.001760   0.019124
    12  Cl  -0.000001   0.000318   0.001512  -0.000118   0.000007  -0.000071
    13  C    0.000000   0.000000   0.438630  -0.060723   0.012506  -0.002954
    14  C   -0.000000  -0.000000  -0.058414   0.445674  -0.065404   0.013338
    15  C    0.000000  -0.000000   0.012513  -0.064634   0.447696  -0.069527
    16  C    0.000000   0.000001  -0.002085   0.012473  -0.061269   0.445825
    17  H   -0.000203   0.000018   0.000000  -0.000000   0.000000  -0.000000
    18  H   -0.010489  -0.000194  -0.000000   0.000000  -0.000000   0.000000
    19  H    0.646290  -0.011211   0.000000  -0.000000   0.000000  -0.000000
    20  H   -0.011211   0.641804  -0.000000   0.000000  -0.000000   0.000000
    21  H    0.000000  -0.000000   0.642149  -0.011355  -0.000203   0.000018
    22  H   -0.000000   0.000000  -0.011355   0.644952  -0.010487  -0.000194
    23  H    0.000000  -0.000000  -0.000203  -0.010487   0.646313  -0.011210
    24  H   -0.000000   0.000000   0.000018  -0.000194  -0.011210   0.641819
          Atomic-Atomic Spin Densities.
               1          2          3          4          5          6
     1  C   -0.142694  -0.012903   0.002661   0.004561  -0.000498   0.003258
     2  C   -0.012903   0.272469  -0.027461  -0.008075  -0.009949  -0.000630
     3  Cl   0.002661  -0.027461   0.054289   0.000010   0.000284  -0.000006
     4  C    0.004561  -0.008075   0.000010  -0.123119   0.000059   0.001810
     5  C   -0.000498  -0.009949   0.000284   0.000059   0.241947  -0.004743
     6  C    0.003258  -0.000630  -0.000006   0.001810  -0.004743  -0.132513
     7  C    0.005731   0.012213  -0.000097  -0.001729  -0.009889   0.000948
     8  N   -0.007241  -0.013037   0.002051   0.000038   0.000165   0.000065
     9  N   -0.006813   0.011502  -0.007343  -0.000461  -0.000004   0.000042
    10  C   -0.001756   0.000261  -0.000485   0.000017  -0.000001  -0.000001
    11  C    0.000265  -0.000460   0.000683   0.000022   0.000000   0.000000
    12  Cl  -0.000496   0.000678  -0.000043  -0.000024  -0.000006   0.000004
    13  C    0.000017   0.000022  -0.000025  -0.000000  -0.000000   0.000000
    14  C   -0.000001   0.000000  -0.000006  -0.000000   0.000000   0.000000
    15  C   -0.000001   0.000000   0.000004   0.000000   0.000000   0.000000
    16  C    0.000149  -0.000052   0.000373   0.000001  -0.000000  -0.000000
    17  H   -0.000259   0.000048   0.000779  -0.002078  -0.000132   0.000076
    18  H    0.000004  -0.000164  -0.000000   0.000027   0.001922   0.000195
    19  H    0.000091  -0.000017  -0.000000   0.000088  -0.000421   0.000092
    20  H   -0.004352   0.000905   0.000001  -0.000233  -0.000017   0.000953
    21  H   -0.000000  -0.000001   0.000001   0.000000   0.000000   0.000000
    22  H    0.000000   0.000000  -0.000000   0.000000  -0.000000  -0.000000
    23  H    0.000000   0.000000  -0.000000  -0.000000   0.000000  -0.000000
    24  H    0.000006   0.000011  -0.000066   0.000000  -0.000000  -0.000000
               7          8          9         10         11         12
     1  C    0.005731  -0.007241  -0.006813  -0.001756   0.000265  -0.000496
     2  C    0.012213  -0.013037   0.011502   0.000261  -0.000460   0.000678
     3  Cl  -0.000097   0.002051  -0.007343  -0.000485   0.000683  -0.000043
     4  C   -0.001729   0.000038  -0.000461   0.000017   0.000022  -0.000024
     5  C   -0.009889   0.000165  -0.000004  -0.000001   0.000000  -0.000006
     6  C    0.000948   0.000065   0.000042  -0.000001   0.000000   0.000004
     7  C    0.221561  -0.018754   0.000318   0.000148  -0.000052   0.000367
     8  N   -0.018754   1.025712  -0.244225  -0.006777   0.011473  -0.007346
     9  N    0.000318  -0.244225   1.025903  -0.007370  -0.013023   0.002058
    10  C    0.000148  -0.006777  -0.007370  -0.142846  -0.012837   0.002663
    11  C   -0.000052   0.011473  -0.013023  -0.012837   0.272486  -0.027459
    12  Cl   0.000367  -0.007346   0.002058   0.002663  -0.027459   0.054306
    13  C    0.000001  -0.000460   0.000037   0.004549  -0.008057   0.000010
    14  C   -0.000000  -0.000004   0.000165  -0.000496  -0.009955   0.000284
    15  C   -0.000000   0.000042   0.000066   0.003239  -0.000621  -0.000005
    16  C   -0.000001   0.000310  -0.018740   0.005786   0.012211  -0.000099
    17  H    0.000011  -0.000020   0.000021  -0.000000  -0.000001   0.000001
    18  H   -0.000094   0.000000  -0.000000   0.000000   0.000000  -0.000000
    19  H   -0.000541  -0.000003  -0.000000   0.000000   0.000000  -0.000000
    20  H   -0.001288   0.004808  -0.000204   0.000005   0.000010  -0.000064
    21  H   -0.000000   0.000021  -0.000020  -0.000259   0.000048   0.000781
    22  H    0.000000  -0.000000   0.000000   0.000004  -0.000164  -0.000000
    23  H   -0.000000  -0.000000  -0.000003   0.000091  -0.000017  -0.000000
    24  H    0.000001  -0.000205   0.004813  -0.004352   0.000903   0.000001
              13         14         15         16         17         18
     1  C    0.000017  -0.000001  -0.000001   0.000149  -0.000259   0.000004
     2  C    0.000022   0.000000   0.000000  -0.000052   0.000048  -0.000164
     3  Cl  -0.000025  -0.000006   0.000004   0.000373   0.000779  -0.000000
     4  C   -0.000000  -0.000000   0.000000   0.000001  -0.002078   0.000027
     5  C   -0.000000   0.000000   0.000000  -0.000000  -0.000132   0.001922
     6  C    0.000000   0.000000   0.000000  -0.000000   0.000076   0.000195
     7  C    0.000001  -0.000000  -0.000000  -0.000001   0.000011  -0.000094
     8  N   -0.000460  -0.000004   0.000042   0.000310  -0.000020   0.000000
     9  N    0.000037   0.000165   0.000066  -0.018740   0.000021  -0.000000
    10  C    0.004549  -0.000496   0.003239   0.005786  -0.000000   0.000000
    11  C   -0.008057  -0.009955  -0.000621   0.012211  -0.000001   0.000000
    12  Cl   0.000010   0.000284  -0.000005  -0.000099   0.000001  -0.000000
    13  C   -0.123172   0.000052   0.001806  -0.001726   0.000000   0.000000
    14  C    0.000052   0.242077  -0.004740  -0.009896   0.000000  -0.000000
    15  C    0.001806  -0.004740  -0.132557   0.000935   0.000000  -0.000000
    16  C   -0.001726  -0.009896   0.000935   0.221637  -0.000000   0.000000
    17  H    0.000000   0.000000   0.000000  -0.000000   0.007804   0.000049
    18  H    0.000000  -0.000000  -0.000000   0.000000   0.000049  -0.011895
    19  H   -0.000000   0.000000  -0.000000  -0.000000  -0.000003   0.000084
    20  H    0.000000  -0.000000   0.000000   0.000001   0.000008   0.000002
    21  H   -0.002082  -0.000131   0.000076   0.000010   0.000000  -0.000000
    22  H    0.000028   0.001922   0.000195  -0.000094  -0.000000   0.000000
    23  H    0.000088  -0.000421   0.000091  -0.000541   0.000000   0.000000
    24  H   -0.000232  -0.000018   0.000960  -0.001291   0.000000  -0.000000
              19         20         21         22         23         24
     1  C    0.000091  -0.004352  -0.000000   0.000000   0.000000   0.000006
     2  C   -0.000017   0.000905  -0.000001   0.000000   0.000000   0.000011
     3  Cl  -0.000000   0.000001   0.000001  -0.000000  -0.000000  -0.000066
     4  C    0.000088  -0.000233   0.000000   0.000000  -0.000000   0.000000
     5  C   -0.000421  -0.000017   0.000000  -0.000000   0.000000  -0.000000
     6  C    0.000092   0.000953   0.000000  -0.000000  -0.000000  -0.000000
     7  C   -0.000541  -0.001288  -0.000000   0.000000  -0.000000   0.000001
     8  N   -0.000003   0.004808   0.000021  -0.000000  -0.000000  -0.000205
     9  N   -0.000000  -0.000204  -0.000020   0.000000  -0.000003   0.004813
    10  C    0.000000   0.000005  -0.000259   0.000004   0.000091  -0.004352
    11  C    0.000000   0.000010   0.000048  -0.000164  -0.000017   0.000903
    12  Cl  -0.000000  -0.000064   0.000781  -0.000000  -0.000000   0.000001
    13  C   -0.000000   0.000000  -0.002082   0.000028   0.000088  -0.000232
    14  C    0.000000  -0.000000  -0.000131   0.001922  -0.000421  -0.000018
    15  C   -0.000000   0.000000   0.000076   0.000195   0.000091   0.000960
    16  C   -0.000000   0.000001   0.000010  -0.000094  -0.000541  -0.001291
    17  H   -0.000003   0.000008   0.000000  -0.000000   0.000000   0.000000
    18  H    0.000084   0.000002  -0.000000   0.000000   0.000000  -0.000000
    19  H    0.005303   0.000023   0.000000   0.000000   0.000000   0.000000
    20  H    0.000023  -0.007111   0.000000  -0.000000   0.000000  -0.000000
    21  H    0.000000   0.000000   0.007808   0.000049  -0.000003   0.000008
    22  H    0.000000  -0.000000   0.000049  -0.011903   0.000084   0.000002
    23  H    0.000000   0.000000  -0.000003   0.000084   0.005306   0.000023
    24  H    0.000000  -0.000000   0.000008   0.000002   0.000023  -0.007122
 Mulliken charges and spin densities:
               1          2
     1  C    0.063376  -0.160274
     2  C    0.012891   0.225362
     3  Cl  -0.063719   0.025605
     4  C   -0.015001  -0.129086
     5  C   -0.009585   0.218716
     6  C   -0.008440  -0.130450
     7  C   -0.022900   0.208855
     8  N   -0.068985   0.746613
     9  N   -0.069177   0.746720
    10  C    0.063497  -0.160418
    11  C    0.012814   0.225457
    12  Cl  -0.063683   0.025609
    13  C   -0.015000  -0.129143
    14  C   -0.009584   0.218832
    15  C   -0.008410  -0.130510
    16  C   -0.022873   0.208972
    17  H    0.023535   0.006302
    18  H    0.032178  -0.009870
    19  H    0.030741   0.004696
    20  H    0.025959  -0.006552
    21  H    0.023530   0.006306
    22  H    0.032169  -0.009877
    23  H    0.030728   0.004698
    24  H    0.025938  -0.006560
 Sum of Mulliken charges =  -0.00000   2.00000
 Mulliken charges and spin densities with hydrogens summed into heavy atoms:
               1          2
     1  C    0.063376  -0.160274
     2  C    0.012891   0.225362
     3  Cl  -0.063719   0.025605
     4  C    0.008534  -0.122784
     5  C    0.022593   0.208846
     6  C    0.022301  -0.125755
     7  C    0.003059   0.202302
     8  N   -0.068985   0.746613
     9  N   -0.069177   0.746720
    10  C    0.063497  -0.160418
    11  C    0.012814   0.225457
    12  Cl  -0.063683   0.025609
    13  C    0.008530  -0.122838
    14  C    0.022585   0.208955
    15  C    0.022318  -0.125812
    16  C    0.003066   0.202411
 APT charges:
               1
     1  C    0.261287
     2  C    0.202105
     3  Cl  -0.240429
     4  C   -0.089351
     5  C   -0.051748
     6  C   -0.022426
     7  C   -0.045172
     8  N   -0.221361
     9  N   -0.220535
    10  C    0.260741
    11  C    0.202742
    12  Cl  -0.241226
    13  C   -0.089621
    14  C   -0.051821
    15  C   -0.022468
    16  C   -0.044911
    17  H    0.057963
    18  H    0.040342
    19  H    0.038547
    20  H    0.070165
    21  H    0.058014
    22  H    0.040344
    23  H    0.038590
    24  H    0.070228
 Sum of APT charges =  -0.00000
 APT charges with hydrogens summed into heavy atoms:
               1
     1  C    0.261287
     2  C    0.202105
     3  Cl  -0.240429
     4  C   -0.031388
     5  C   -0.011405
     6  C    0.016121
     7  C    0.024993
     8  N   -0.221361
     9  N   -0.220535
    10  C    0.260741
    11  C    0.202742
    12  Cl  -0.241226
    13  C   -0.031607
    14  C   -0.011477
    15  C    0.016122
    16  C    0.025318
 Electronic spatial extent (au):  <R**2>=           6042.6229
 Charge=             -0.0000 electrons
 Dipole moment (field-independent basis, Debye):
    X=              0.4516    Y=              0.4946    Z=             -0.3038  Tot=              0.7354
 Quadrupole moment (field-independent basis, Debye-Ang):
   XX=            -91.5530   YY=           -104.3471   ZZ=            -95.2251
   XY=             -4.8213   XZ=             10.4238   YZ=             -3.0521
 Traceless Quadrupole moment (field-independent basis, Debye-Ang):
   XX=              5.4887   YY=             -7.3054   ZZ=              1.8167
   XY=             -4.8213   XZ=             10.4238   YZ=             -3.0521
 Octapole moment (field-independent basis, Debye-Ang**2):
  XXX=           -389.5144  YYY=            381.8352  ZZZ=             -4.1229  XYY=           -160.4818
  XXY=             82.0347  XXZ=             15.6127  XZZ=           -148.6977  YZZ=            105.4437
  YYZ=            -12.9391  XYZ=            -16.1806
 Hexadecapole moment (field-independent basis, Debye-Ang**3):
 XXXX=          -3781.3165 YYYY=          -2228.0002 ZZZZ=          -1659.3336 XXXY=            919.3946
 XXXZ=           -602.6238 YYYX=           1210.2641 YYYZ=            333.8233 ZZZX=           -629.3203
 ZZZY=            256.2107 XXYY=          -1019.2755 XXZZ=           -888.1177 YYZZ=           -626.8042
 XXYZ=             26.1868 YYXZ=           -222.4972 ZZXY=            333.6496
 N-N= 1.235877706546D+03 E-N=-5.982404954017D+03  KE= 1.483169478117D+03
  Exact polarizability:     202.584     -37.228     131.155      76.587     -22.074     188.410
 Approx polarizability:     200.118     -15.440     152.505      57.771      -9.722     214.076
                          Isotropic Fermi Contact Couplings
        Atom                 a.u.       MegaHertz       Gauss      10(-4) cm-1
     1  C(13)              0.02653      14.91150       5.32079       4.97394
     2  C(13)              0.05050      28.38391      10.12809       9.46785
     3  Cl(35)             0.01396       3.06010       1.09192       1.02074
     4  C(13)             -0.02426     -13.63624      -4.86575      -4.54856
     5  C(13)              0.03743      21.03717       7.50659       7.01724
     6  C(13)             -0.03001     -16.86716      -6.01862      -5.62628
     7  C(13)              0.03752      21.08729       7.52447       7.03396
     8  N(14)              0.40480      65.39672      23.33518      21.81400
     9  N(14)              0.40474      65.38601      23.33135      21.81042
    10  C(13)              0.02642      14.85043       5.29900       4.95357
    11  C(13)              0.05054      28.41005      10.13741       9.47657
    12  Cl(35)             0.01405       3.07978       1.09894       1.02730
    13  C(13)             -0.02426     -13.63618      -4.86573      -4.54854
    14  C(13)              0.03745      21.04830       7.51056       7.02096
    15  C(13)             -0.03002     -16.87495      -6.02140      -5.62888
    16  C(13)              0.03756      21.11208       7.53331       7.04223
    17  H(1)               0.00177       3.95085       1.40976       1.31786
    18  H(1)              -0.00298      -6.66531      -2.37835      -2.22331
    19  H(1)               0.00140       3.12488       1.11503       1.04235
    20  H(1)              -0.00285      -6.37981      -2.27648      -2.12808
    21  H(1)               0.00177       3.95169       1.41006       1.31814
    22  H(1)              -0.00298      -6.66978      -2.37994      -2.22480
    23  H(1)               0.00140       3.12654       1.11563       1.04290
    24  H(1)              -0.00286      -6.38454      -2.27816      -2.12965
 --------------------------------------------------------
       Center         ----  Spin Dipole Couplings  ----
                      3XX-RR        3YY-RR        3ZZ-RR
 --------------------------------------------------------
     1   Atom       -0.081643      0.114132     -0.032489
     2   Atom        0.073266     -0.086723      0.013457
     3   Atom        0.013266     -0.024184      0.010918
     4   Atom       -0.044002      0.051809     -0.007807
     5   Atom        0.088060     -0.106214      0.018155
     6   Atom       -0.044682      0.054567     -0.009886
     7   Atom        0.080754     -0.103004      0.022250
     8   Atom        0.236657     -0.222452     -0.014205
     9   Atom       -0.645426      0.987052     -0.341626
    10   Atom        0.180857     -0.205859      0.025002
    11   Atom       -0.094574      0.203563     -0.108989
    12   Atom        0.037976      0.145702     -0.183677
    13   Atom        0.059498     -0.108480      0.048982
    14   Atom       -0.092821      0.204649     -0.111828
    15   Atom        0.056359     -0.105323      0.048964
    16   Atom       -0.087482      0.186442     -0.098960
    17   Atom       -0.000655     -0.000815      0.001470
    18   Atom        0.000177     -0.001182      0.001005
    19   Atom       -0.002461      0.004059     -0.001597
    20   Atom       -0.003560      0.004361     -0.000801
    21   Atom        0.005162     -0.004508     -0.000654
    22   Atom        0.014622     -0.001024     -0.013597
    23   Atom        0.006774     -0.003892     -0.002882
    24   Atom       -0.002849     -0.009231      0.012080
 --------------------------------------------------------
                        XY            XZ            YZ
 --------------------------------------------------------
     1   Atom       -0.063748      0.158811     -0.062160
     2   Atom       -0.003759     -0.162693      0.005890
     3   Atom       -0.014504     -0.155880     -0.098047
     4   Atom       -0.004272      0.083482     -0.007905
     5   Atom       -0.005366     -0.152836     -0.005849
     6   Atom       -0.003020      0.079086     -0.004531
     7   Atom       -0.005217     -0.136776     -0.004217
     8   Atom        0.135711     -0.900145      0.272005
     9   Atom        0.217402     -0.360201      0.157091
    10   Atom       -0.069519      0.027915     -0.007844
    11   Atom        0.039421     -0.015623      0.012317
    12   Atom        0.076717     -0.020369      0.003639
    13   Atom       -0.022222      0.006615     -0.002973
    14   Atom        0.040248      0.004319      0.000554
    15   Atom       -0.022135      0.001500     -0.001406
    16   Atom        0.037293      0.009585      0.001611
    17   Atom       -0.002874      0.005005     -0.003558
    18   Atom       -0.010170      0.001887     -0.012620
    19   Atom       -0.002796      0.002016     -0.003522
    20   Atom        0.004881      0.007076      0.006158
    21   Atom       -0.001411      0.004632     -0.000683
    22   Atom       -0.002251      0.007862     -0.000994
    23   Atom       -0.001472     -0.000141     -0.000015
    24   Atom       -0.001024     -0.002716      0.000107
 --------------------------------------------------------


 ---------------------------------------------------------------------------------
              Anisotropic Spin Dipole Couplings in Principal Axis System
 ---------------------------------------------------------------------------------

       Atom             a.u.   MegaHertz   Gauss  10(-4) cm-1        Axes

              Baa    -0.2180   -29.250   -10.437    -9.757  0.7636  0.0258 -0.6452
     1 C(13)  Bbb     0.0202     2.707     0.966     0.903  0.4564  0.6852  0.5676
              Bcc     0.1978    26.543     9.471     8.854 -0.4567  0.7279 -0.5114
 
              Baa    -0.1222   -16.396    -5.850    -5.469  0.6379 -0.0599  0.7678
     2 C(13)  Bbb    -0.0867   -11.640    -4.154    -3.883  0.0556  0.9980  0.0316
              Bcc     0.2089    28.036    10.004     9.352  0.7681 -0.0225 -0.6400
 
              Baa    -0.1858    -9.722    -3.469    -3.243  0.5669  0.4640  0.6807
     3 Cl(35) Bbb    -0.0003    -0.017    -0.006    -0.006 -0.5347  0.8358 -0.1244
              Bcc     0.1861     9.738     3.475     3.248 -0.6266 -0.2934  0.7220
 
              Baa    -0.1113   -14.941    -5.331    -4.984  0.7781 -0.0101 -0.6281
     4 C(13)  Bbb     0.0460     6.178     2.204     2.061  0.3509  0.8363  0.4212
              Bcc     0.0653     8.763     3.127     2.923  0.5211 -0.5481  0.6542
 
              Baa    -0.1130   -15.159    -5.409    -5.056  0.4054  0.7611  0.5064
     5 C(13)  Bbb    -0.0969   -13.006    -4.641    -4.338 -0.4735  0.6487 -0.5958
              Bcc     0.2099    28.165    10.050     9.395  0.7820 -0.0017 -0.6233
 
              Baa    -0.1083   -14.528    -5.184    -4.846  0.7793 -0.0030 -0.6266
     6 C(13)  Bbb     0.0487     6.534     2.331     2.179  0.4622  0.6781  0.5715
              Bcc     0.0596     7.994     2.852     2.667 -0.4232  0.7350 -0.5298
 
              Baa    -0.1055   -14.160    -5.053    -4.723  0.2280  0.9340  0.2749
[...]
 1,0.00061810,-0.00016057,-0.00272581,0.00286731,-0.00024800,-0.0479357
 8,0.00678031,-0.05241595,-0.10493393,0.00414902,-0.00616291,0.05150784
 ,-0.00632615,0.00824856,-0.00319181,0.00090455,0.00372928,-0.03805188,
 0.00536580,-0.03429814,-0.05322345,0.00743813,0.06371621,-0.35665986,0
 .03946678,-0.09923520,0.76318580,-0.00075648,0.00044399,0.00015417,-0.
 00020793,-0.00023483,-0.00024863,-0.00003821,0.00045433,-0.00003494,0.
 00008179,0.00006328,-0.00001353,-0.00000372,0.00000092,0.00001489,-0.0
 0000557,0.00000634,0.00004802,0.00007969,-0.00001693,0.00007614,0.0009
 7192,0.00466042,-0.00181985,0.00759975,0.00091051,0.00855331,0.0053023
 3,-0.06802808,0.00208733,-0.00661561,0.00659254,-0.00010020,0.00089251
 ,0.00391381,-0.00017275,0.00476556,-0.00409955,0.00450832,0.00779191,0
 .00805178,-0.00848450,0.03895549,-0.06926773,0.01393208,-0.08124765,0.
 14776981,-0.00168585,0.00053211,-0.00346860,0.00025542,-0.00086814,0.0
 0043577,0.00053962,-0.00101335,0.00015429,-0.00018446,-0.00012925,-0.0
 0008423,0.00001787,-0.00011076,0.00001827,-0.00005527,0.00027037,-0.00
 003794,0.00028708,0.00019736,0.00053206,0.00744165,0.00096442,0.008753
 34,-0.05426644,0.00733043,-0.01777448,-0.03555330,0.00521311,-0.302363
 99,0.03840341,-0.00418463,-0.03250791,0.00060371,0.00001807,-0.0011228
 8,-0.02717417,0.00406846,-0.03001870,0.00474723,-0.00110580,0.05698269
 ,-0.02298165,0.00386145,-0.15180414,-0.02994430,-0.00042516,0.68002237
 ,0.00233368,0.00140146,-0.00448485,0.00502283,0.01414156,0.00136172,-0
 .00151226,0.00071469,0.00176893,-0.05168832,-0.04251516,-0.01643533,0.
 00267825,-0.01790888,-0.00173674,0.00200745,-0.00088682,-0.00578404,-0
 .00099185,0.00044556,-0.00013940,-0.00013254,0.00063323,-0.00018816,0.
 00026624,0.00013551,0.00034488,0.00001580,-0.00006583,0.00001044,-0.00
 001737,-0.00000909,-0.00006178,-0.00000812,-0.00000292,0.00004583,-0.0
 0000200,0.00000493,-0.00000256,-0.00001550,-0.00000035,-0.00000009,-0.
 00000177,-0.00000684,0.00000683,-0.00001820,-0.00000122,-0.00000430,0.
 04459009,0.00215597,-0.00048295,0.00254615,-0.00546474,-0.01483753,-0.
 00630035,-0.00051915,0.00105578,-0.00058596,-0.04097832,-0.33648788,-0
 .04586727,0.00103318,-0.00306421,0.00144244,-0.00101000,0.00133389,-0.
 00110146,0.00026466,0.00084498,0.00033212,-0.00008970,-0.00066315,-0.0
 0003320,-0.00018629,0.00008749,-0.00009197,0.00002803,-0.00004000,-0.0
 0005615,0.00001352,-0.00001389,0.00012462,-0.00000659,0.00000707,-0.00
 007157,0.00001056,0.00000287,0.00002149,0.00003576,-0.00000361,0.00000
 314,0.00001382,0.00000413,-0.00002028,0.00003448,0.00000886,-0.0000248
 7,0.04456883,0.35199710,-0.00456958,0.00151570,0.00049508,0.00155442,0
 .01824676,0.00522351,0.00173112,0.00066751,-0.00089923,-0.01592734,-0.
 04766715,-0.05654012,-0.00242821,-0.02233691,0.00163817,-0.00584003,-0
 .00072310,-0.00046019,-0.00003235,0.00042055,-0.00094730,0.00002804,0.
 00098077,-0.00023992,0.00021255,-0.00000987,0.00041269,-0.00001356,0.0
 0003216,-0.00000407,-0.00000297,0.00002302,0.00001458,0.00000971,0.000
 00458,-0.00001057,-0.00000739,-0.00000565,-0.00001829,-0.00001658,0.00
 000121,0.00000061,-0.00000250,-0.00000117,0.00000219,-0.00002037,-0.00
 001580,-0.00000371,0.02262176,0.04971260,0.05275227,-0.00050291,-0.000
 52516,0.00021222,0.00273403,-0.00151405,-0.00491046,-0.00040934,0.0002
 5429,-0.00062685,-0.00340129,0.01358226,-0.00936135,-0.10709175,0.0899
 5866,-0.08765841,0.00596972,-0.00447447,0.00238706,0.00417580,-0.00125
 440,-0.00255004,-0.00040117,-0.00002405,0.00025563,0.00003916,-0.00000
 716,0.00007377,0.00003543,-0.00002172,0.00000341,-0.00000108,0.0000094
 9,-0.00004897,-0.00000521,0.00000199,0.00003151,0.00000395,-0.00000435
 ,0.00000302,-0.00000910,0.00000072,-0.00000059,0.00000529,0.00000263,0
 .00000680,-0.00001322,0.00001018,0.00000374,-0.00225161,0.00003223,0.0
 0254778,0.10309224,-0.00071636,-0.00028651,-0.00089926,-0.00141372,0.0
 0049759,-0.00165669,-0.00034942,0.00013257,-0.00041082,-0.00616579,0.0
 0982561,-0.00774386,0.09022498,-0.19208749,0.11301848,0.01503566,-0.01
 232463,0.01880524,-0.00153149,-0.00504620,-0.00186739,0.00015356,0.000
 17256,0.00021687,-0.00001023,-0.00002743,-0.00002000,-0.00001470,-0.00
 001224,-0.00000559,0.00000564,-0.00000041,0.00001358,-0.00000076,-0.00
 000093,-0.00000336,0.00000157,0.00000043,0.00001157,0.00001143,-0.0000
 0168,0.00000121,0.00000400,0.00000138,-0.00000465,0.00001289,0.0000008
 5,-0.00000750,0.00018473,0.00054528,0.00017459,-0.09603189,0.19828494,
 0.00017029,-0.00069973,-0.00041316,-0.00474312,-0.00191206,0.00085004,
 -0.00069993,0.00024681,-0.00073494,-0.00927673,0.01691086,-0.00759968,
 -0.08767599,0.11278724,-0.14662440,0.00229490,-0.00553065,0.00692279,-
 0.00262872,-0.00139603,0.00298707,0.00040802,0.00003487,-0.00017305,-0
 .00001275,-0.00000348,0.00005820,0.00000325,-0.00000395,-0.00000897,0.
 00001484,-0.00000943,0.00000657,-0.00000653,0.00000485,-0.00000906,0.0
 0000102,0.00000235,-0.00000840,-0.00000056,0.00000052,-0.00000082,-0.0
 0000098,0.00000057,0.00000520,0.00000522,0.00000579,0.00001230,0.00254
 146,-0.00008903,-0.00117952,0.09740816,-0.12036806,0.14689945,0.004640
 62,0.00201331,-0.00403932,-0.00008203,0.00046088,0.00047572,-0.0004333
 6,-0.00002261,0.00032328,0.00445734,-0.00067152,-0.00242532,0.00178325
 ,0.00126867,-0.00243013,-0.14953070,-0.05372659,-0.13743344,-0.0036052
 2,-0.00665973,-0.00933410,-0.00009566,-0.00028325,-0.00067664,-0.00037
 689,0.00009315,0.00001725,0.00003579,0.00003598,0.00001700,-0.00002744
 ,0.00000624,-0.00013487,-0.00001394,0.00000175,0.00006818,0.00000246,-
 0.00000238,0.00001350,-0.00001854,0.00000306,-0.00000410,-0.00000020,-
 0.00000171,0.00000896,-0.00003566,0.00000325,0.00001595,0.00000389,0.0
 0005202,-0.00012007,-0.00212963,-0.00006667,0.00210850,0.14801151,0.00
 159429,-0.00253938,0.00207007,0.00054696,-0.00107901,0.00069721,-0.000
 06837,0.00016557,-0.00008305,-0.00040034,-0.00550041,-0.00042880,-0.01
 839535,-0.00268987,-0.02288679,-0.05404827,-0.08798518,-0.06715918,0.0
 1334613,0.01071268,0.01649688,0.00052513,0.00048821,0.00089322,0.00021
 468,-0.00015061,0.00000966,-0.00004771,-0.00003665,0.00007806,0.000001
 21,0.00000037,0.00001435,0.00000761,-0.00000448,-0.00001686,0.00000069
 ,0.00000169,0.00000278,0.00000780,-0.00000129,0.00000048,-0.00000037,0
 .00000363,0.00000355,0.00003231,0.00000048,0.00000209,-0.00082570,-0.0
 0023041,-0.00099973,0.00022807,0.00097217,0.00026246,0.05747613,0.0872
 4337,-0.00397778,0.00272829,0.00280630,0.00050095,0.00045021,0.0001543
 7,0.00031296,-0.00005052,-0.00029852,-0.00236160,-0.00080396,0.0034681
 3,-0.00237204,0.00152631,0.00081136,-0.13738081,-0.06679914,-0.2097927
 6,-0.00967377,-0.00820054,-0.00795220,-0.00069467,-0.00029666,-0.00052
 453,0.00009132,0.00015903,-0.00029215,0.00013559,-0.00001684,0.0000555
 4,-0.00002168,0.00001077,-0.00003536,-0.00000862,0.00000099,0.00002644
 ,0.00000073,0.00000101,-0.00000371,-0.00002425,0.00000361,-0.00000319,
 0.00000285,-0.00000342,0.00000362,-0.00004757,0.00000340,-0.00000204,-
 0.00013048,0.00006415,-0.00006911,0.00211388,-0.00010176,-0.00120511,0
 .15082129,0.07134954,0.21418958,0.00186924,-0.01852626,-0.00351096,0.0
 0155478,0.00001060,-0.00442153,-0.00036299,-0.00076960,-0.00043487,-0.
 00095358,0.00008961,-0.00008695,0.00311627,0.00187073,-0.00503727,0.00
 660289,0.01440229,0.00212435,-0.04965398,-0.03497328,-0.01461332,-0.00
 116022,-0.00013414,0.00279335,-0.00019640,0.00013980,-0.00015143,0.000
 13252,-0.00015452,0.00011770,-0.00003073,0.00002672,-0.00017046,-0.000
 07002,0.00001731,0.00017592,0.00002193,0.00000723,0.00013727,0.0000319
 5,-0.00000804,-0.00000190,0.00003785,0.00000600,-0.00001798,-0.0000145
 7,0.00000904,-0.00006047,-0.00027832,0.00000559,0.00027568,0.00016485,
 0.00066457,0.00009294,-0.00257765,-0.00019836,0.00272150,0.04176441,0.
 00123666,-0.00531456,0.00178596,-0.00094013,0.00043196,-0.00123488,0.0
 0005103,-0.00009557,0.00002008,0.00014372,0.00089153,0.00020861,0.0021
 7351,-0.00062499,0.00274668,-0.00467160,-0.01184958,-0.00573839,-0.036
 39278,-0.34030035,-0.04221407,0.00114916,0.00020837,0.00136772,-0.0001
 0362,0.00019915,-0.00012259,0.00009050,0.00000740,0.00004921,0.0000054
 2,0.00002663,-0.00014067,-0.00003436,-0.00000555,0.00010403,0.00001284
 ,-0.00000806,0.00003077,-0.00001100,0.00000073,-0.00000465,0.00000583,
 -0.00000074,0.00001566,-0.00001567,-0.00001643,-0.00000166,-0.00002520
 ,-0.00004548,-0.00003136,-0.00021837,-0.00064249,-0.00023629,0.0000202
 1,0.00063238,-0.00002294,0.03752904,0.35650584,-0.00347374,-0.02341843
 ,0.00076580,-0.00446690,0.00003319,-0.00041324,-0.00048883,-0.00109353
 ,-0.00055771,-0.00015836,0.00016090,-0.00107429,-0.00499934,0.00250098
 ,0.00087146,0.00238843,0.01807526,0.00761223,-0.01490426,-0.04037967,-
 0.05611515,0.00314587,0.00020994,0.00081225,-0.00045842,0.00011160,-0.
 00097170,0.00019064,-0.00014640,0.00017196,-0.00004700,0.00001844,0.00
 030743,-0.00001192,0.00001442,-0.00018192,0.00001495,-0.00000094,0.000
 03395,0.00004102,-0.00000463,0.00000811,0.00004310,0.00000752,-0.00005
 144,0.00003458,-0.00001157,-0.00009157,0.00026645,-0.00000715,-0.00016
 056,0.00010498,0.00084668,0.00021406,0.00272490,-0.00030718,-0.0013411
 7,0.02004170,0.04341259,0.05016221,-0.00001044,0.00005180,0.00003601,-
 0.00007842,-0.00004521,-0.00006859,0.00003899,0.00002863,0.00004402,-0
 .00001392,-0.00000513,-0.00002701,-0.00001398,0.00003329,-0.00002088,0
 .00001164,0.00002114,0.00000273,0.00001185,0.00004362,-0.00001910,0.00
 030196,-0.00006831,0.00038351,-0.00104548,0.00000718,0.00060561,-0.003
 58914,0.00147181,-0.00290481,-0.01483957,0.00196840,0.02257682,0.00075
 153,-0.00058900,0.00058795,-0.19436546,0.01841473,0.14471520,0.0101570
 7,-0.00067654,-0.00858458,0.00061665,0.00080868,-0.00227314,-0.0002074
 6,-0.00009583,-0.00096811,-0.00000372,0.00000685,0.00000009,-0.0000025
 5,0.00000109,0.00000100,-0.00000771,0.00000131,-0.00000391,-0.00001072
 ,-0.00000522,0.00001051,0.20148136,-0.00006856,0.00001240,0.00001795,0
 .00002543,0.00003071,0.00006493,-0.00002861,-0.00003717,-0.00002422,0.
 00000248,-0.00000291,-0.00000826,0.00000169,-0.00000564,0.00000456,-0.
 00000751,-0.00000434,-0.00000048,0.00000688,-0.00000761,-0.00000087,0.
 00002773,0.00005247,-0.00016340,0.00007549,-0.00009069,0.00004507,0.00
 146319,0.00581390,0.00038903,0.00219160,0.00345256,-0.00299018,-0.0004
 5719,-0.00290511,-0.00025171,0.01861018,-0.03996198,-0.01590561,-0.001
 12268,0.00444064,0.00093164,0.00067238,0.00662380,0.00052015,0.0000279
 5,-0.00089424,0.00015744,0.00000553,-0.00000383,-0.00000118,0.00000087
 ,-0.00000037,-0.00000095,0.00000028,0.00000015,-0.00000078,0.00000053,
 0.00000052,-0.00000419,-0.02066509,0.02810425,0.00001724,-0.00003154,-
 0.00003084,0.00002112,0.00002889,0.00003029,-0.00001675,-0.00001087,-0
 .00001275,-0.00000112,-0.00000067,-0.00000064,0.00000251,0.00000004,0.
 00000120,-0.00000045,-0.00000785,-0.00000263,-0.00000526,-0.00000806,-
 0.00001692,0.00015240,0.00008989,0.00040941,-0.00065607,-0.00000217,0.
 00010446,-0.00163043,0.00031095,0.00012112,-0.00857921,0.00106685,0.00
 678293,-0.00112469,0.00010374,0.00080291,0.14699769,-0.01666598,-0.210
 08043,0.02162100,-0.00256469,-0.01334802,-0.00264380,0.00054321,-0.004
 37064,-0.00115360,0.00014190,0.00001084,0.00000034,-0.00000177,0.00000
 079,0.00000008,-0.00000089,0.00000094,-0.00000042,-0.00000013,0.000002
 06,-0.00000591,-0.00000087,-0.00000076,-0.15397010,0.01726034,0.219457
 59,0.00000299,-0.00001769,0.00001322,-0.00000732,-0.00001321,-0.000012
 26,-0.00000118,0.00000667,0.00000363,-0.00000658,-0.00000748,-0.000008
 58,-0.00000513,0.00000906,-0.00000608,0.00000376,0.00000659,0.00000382
 ,0.00000044,0.00001701,0.00000567,0.00002013,0.00002879,0.00005870,-0.
 00000255,-0.00011884,-0.00021386,0.00063426,-0.00016242,0.00052816,0.0
 0161399,0.00066874,-0.00088965,-0.00020117,0.00004264,-0.00016612,-0.0
 0315709,0.00096255,0.00204841,-0.32768717,0.03947761,-0.06629019,-0.01
 332602,0.00238458,-0.00899634,-0.00110200,0.00097128,0.00381062,0.0000
 0037,0.00000149,0.00000032,-0.00000139,0.00000160,-0.00000170,-0.00000
 209,0.00000013,-0.00000342,0.00000458,0.00000075,0.00000214,0.00047746
 ,-0.00064116,-0.00004011,0.34280220,-0.00002293,0.00002113,-0.00001231
 ,0.00003646,0.00001577,0.00002721,-0.00001689,-0.00001761,-0.00001956,
 -0.00000775,-0.00000065,-0.00000240,0.00000251,-0.00000687,0.00000418,
 -0.00000133,0.00000169,-0.00000533,0.00000928,-0.00001146,0.00000691,-
 0.00002629,0.00001620,-0.00003935,-0.00005493,-0.00062469,0.00014561,-
 0.00016292,-0.00063447,-0.00010407,0.00082247,0.00659652,0.00033954,0.
 00005763,0.00010309,-0.00003923,0.00114397,0.00389574,-0.00024470,0.03
 941672,-0.04236808,0.00920902,0.00218505,0.00375551,0.00113741,0.00086
 648,0.00612287,-0.00046288,0.00000190,-0.00000223,0.00000095,0.0000006
 6,-0.00000060,-0.00000056,0.00000024,-0.00000012,0.00000054,-0.0000034
 7,-0.00000030,-0.00000228,-0.00060611,-0.00423379,-0.00009100,-0.04312
 355,0.03104245,0.00001652,-0.00001661,-0.00000950,-0.00000288,-0.00001
 775,-0.00000335,-0.00000038,0.00001124,0.00000381,0.00000249,-0.000001
 63,0.00000316,0.00000034,-0.00000108,0.00000034,0.00000122,-0.00000083
 ,0.00000642,-0.00000392,0.00000127,0.00001090,0.00005174,0.00002800,0.
 00003300,0.00001914,-0.00002728,0.00022435,0.00026962,-0.00001782,-0.0
 0120143,-0.00064410,0.00021296,-0.00413352,-0.00103712,0.00017282,-0.0
 0091319,-0.02925971,0.00393906,-0.00194966,-0.06594125,0.00914617,-0.0
 7572963,0.02190588,-0.00299120,0.01014699,0.00328509,-0.00037224,-0.00
 288931,0.00000038,0.00000012,-0.00000014,0.00000012,0.00000081,-0.0000
 0062,0.00000068,-0.00000024,-0.00000077,0.00000770,0.00000301,-0.00000
 286,0.00025866,-0.00010387,0.00087519,0.07058597,-0.00987907,0.0744409
 0,-0.00001306,-0.00011136,0.00005641,-0.00004223,-0.00001841,-0.000046
 30,0.00001552,0.00003642,0.00002382,0.00000076,-0.00000106,-0.00000128
 ,-0.00001017,0.00001797,-0.00001195,0.00000523,-0.00000135,-0.00000128
 ,-0.00001544,0.00005003,-0.00002869,-0.00031981,0.00012131,-0.00008651
 ,-0.00027934,-0.00004953,-0.00152540,-0.00444316,0.00159309,0.00023727
 ,-0.00125789,0.00009524,0.00032961,0.00016219,-0.00011557,-0.00004064,
 -0.00241651,0.00114892,0.00329942,0.01030863,-0.00101652,0.02144516,-0
 .07937256,0.00593987,-0.07317943,-0.00218336,0.00112373,-0.02977346,-0
 .00000024,0.00000461,-0.00000211,-0.00000094,0.00000201,-0.00000099,-0
 .00000422,0.00000231,-0.00000558,0.00000287,-0.00000029,0.00000658,0.0
 0034228,-0.00005537,0.00094202,0.00063005,-0.00059559,-0.00049092,0.07
 812104,0.00005715,-0.00002405,0.00001271,0.00005016,0.00004269,0.00006
 682,-0.00001945,-0.00003073,-0.00002502,-0.00000936,-0.00000568,-0.000
 00785,0.00000204,-0.00000131,0.00000208,-0.00000211,-0.00000409,-0.000
 00244,-0.00000499,-0.00001315,-0.00000607,0.00000615,-0.00041375,0.000
 08213,0.00001589,0.00042144,0.00016989,0.00157509,0.00763083,0.0000815
 0,0.00017763,-0.00049087,-0.00007029,-0.00010858,-0.00067505,-0.000012
 63,0.00119605,0.00624739,-0.00034338,-0.00077604,0.00386946,-0.0027739
 6,0.00599535,-0.03989235,0.01193163,0.00065144,0.00384325,0.00392191,0
 .00000232,-0.00000283,0.00000285,-0.00000064,-0.00000042,-0.00000070,0
 .00000036,-0.00000068,-0.00000005,-0.00000071,0.00000153,-0.00000154,-
 0.00003855,0.00010440,-0.00013717,-0.00059769,-0.00374766,0.00003481,-
 0.00745177,0.02780071,0.00007528,-0.00001866,0.00009174,-0.00005903,-0
 .00002298,-0.00006352,0.00002106,0.00003091,0.00002308,0.00000343,0.00
 000170,0.00000535,-0.00000970,0.00001545,-0.00001159,0.00000591,0.0000
 0359,0.00000601,-0.00000676,0.00003082,-0.00000863,-0.00015090,-0.0000
 7711,-0.00008556,-0.00009213,0.00005683,-0.00027280,-0.00054326,0.0000
 8611,0.00171224,0.00056921,-0.00008128,0.00074064,-0.00009067,0.000011
 06,-0.00005131,0.00375015,-0.00044391,-0.00138768,-0.00960136,0.001427
 27,-0.01427283,-0.07367939,0.01197653,-0.32798986,0.00174502,-0.000160
 62,-0.00252672,-0.00000063,0.00000534,-0.00000246,-0.00000124,0.000002
 58,-0.00000160,-0.00000326,0.00000114,-0.00000543,0.00000856,-0.000000
 38,0.00000770,-0.00041938,0.00006900,-0.00074298,-0.00002580,-0.000031
 75,0.00073711,0.07852041,-0.01284586,0.34349712,0.00014971,-0.00001563
 ,0.00001165,0.00011737,0.00015911,0.00013037,-0.00008309,-0.00007865,-
 0.00007872,0.00000669,0.00001275,0.00002158,0.00001698,-0.00002741,0.0
 0002166,-0.00002120,-0.00004540,-0.00001154,-0.00003260,-0.00005499,-0
 .00001987,-0.00020965,-0.00008938,-0.00042635,0.00014804,-0.00036015,0
 .00012154,0.00839555,-0.00045447,-0.00916272,-0.00012997,0.00076919,-0
 .00094572,0.00024945,0.00001194,-0.00082890,0.00003579,-0.00013181,-0.
 00105239,-0.00426013,0.00153514,-0.00258870,-0.01226059,0.00210526,0.0
 2188142,-0.20335522,0.02041379,0.14652549,0.00000324,-0.00000683,0.000
 00155,0.00000072,-0.00000271,-0.00000157,0.00000609,-0.00000028,0.0000
 0511,0.00000504,-0.00000042,-0.00000708,-0.00000220,-0.00006603,0.0000
 7353,-0.00069055,0.00007838,0.00097473,0.00077035,-0.00071976,-0.00001
 553,0.21114016,-0.00003461,0.00000268,0.00003276,0.00016084,0.00016390
 ,0.00018760,-0.00010604,-0.00017145,-0.00013167,-0.00004277,-0.0000443
 5,-0.00006742,-0.00000159,0.00000723,0.00000364,-0.00000726,-0.0000013
 5,-0.00001182,0.00001947,-0.00002723,0.00000566,-0.00021934,-0.0001576
 7,-0.00034924,-0.00040798,-0.00324579,0.00050054,-0.00029057,0.0048773
 0,0.00143385,0.00070717,0.00501574,0.00016528,0.00002198,0.00000185,0.
 00005448,-0.00018533,-0.00085605,0.00010257,0.00148531,0.00693784,0.00
 045482,0.00237424,0.00450239,-0.00285551,0.02024764,-0.04028622,-0.018
 20323,0.00000774,-0.00000946,0.00000867,-0.00000578,-0.00000198,-0.000
 00538,-0.00000105,-0.00000264,-0.00000123,-0.00001072,-0.00000196,-0.0
 0001401,-0.00006358,-0.00048810,-0.00002215,0.00010254,0.00007756,-0.0
 0012066,-0.00071868,-0.00465910,-0.00003579,-0.02303162,0.02836686,0.0
 0030295,-0.00010803,0.00015936,-0.00002642,0.00005904,0.00002294,-0.00
 001154,0.00007104,-0.00000329,0.00006459,0.00003792,0.00008544,0.00001
 539,-0.00003032,0.00001638,-0.00001174,-0.00006012,0.00000821,-0.00003
 618,-0.00005758,-0.00006366,-0.00072349,-0.00003114,-0.00060432,0.0017
 6294,-0.00017624,0.00296040,0.02258821,-0.00272404,-0.01596594,-0.0025
 1547,0.00038649,-0.00332429,0.00054649,-0.00005685,-0.00126439,-0.0009
 7763,0.00014317,-0.00031618,-0.00221901,0.00032691,0.00068356,-0.00838
 755,0.00103578,0.01012059,0.14426520,-0.01766556,-0.20222570,-0.000000
 67,-0.00000116,-0.00000469,0.00000577,-0.00000178,0.00000268,0.0000064
 7,0.00000047,0.00000865,0.00001641,0.00000441,-0.00000480,0.00003749,-
 0.00000442,0.00000685,-0.00040654,0.00006312,0.00035180,0.00033383,-0.
 00007937,0.00060199,-0.15462953,0.01886824,0.20874839\\-0.00000081,-0.
 00000037,-0.00000006,0.00000092,0.00000112,-0.00000019,0.00000128,0.00
 000060,-0.00000503,-0.00000047,-0.00000097,-0.00000249,0.00000091,-0.0
 0000085,0.00000114,-0.00000145,-0.00000003,0.00000063,-0.00000066,-0.0
 0000057,0.00000236,0.00000010,0.00000045,0.00000258,0.00000010,0.00000
 141,0.00000014,0.00000011,0.00000075,0.00000024,-0.00000110,-0.0000007
 7,0.00000049,-0.00000235,-0.00000387,0.00000028,0.00000016,-0.00000103
 ,-0.00000061,-0.00000082,-0.00000012,-0.00000073,0.00000193,0.00000169
 ,-0.00000056,0.00000091,0.00000180,-0.00000019,0.00000034,-0.00000013,
 -0.00000109,0.00000016,-0.00000044,0.00000003,0.00000036,-0.00000010,0
 .00000208,-0.00000044,0.00000029,0.00000148,-0.00000085,-0.00000103,0.
 00000017,0.00000020,-0.00000003,-0.00000035,0.00000061,0.00000099,-0.0
 0000040,0.00000085,0.00000123,0.00000007\\\@
 The archive entry for this job was punched.


 ACHIEVEMENT--  THE MAN WHO ROWS THE BOAT GENERALLY 
                DOESN'T HAVE TIME TO ROCK IT.

                   -- FROM THE BACK OF A SUGAR PACKET
 Job cpu time:       0 days  0 hours 35 minutes  3.8 seconds.
 Elapsed time:       0 days  0 hours  3 minutes 16.3 seconds.
 File lengths (MBytes):  RWF=    479 Int=      0 D2E=      0 Chk=      8 Scr=      1
 Normal termination of Gaussian 16 at Fri Mar  6 17:34:58 2026.
