 Entering Gaussian System, Link 0=g16
 Initial command:
 /prod/precompiled/gaussian/16c2/g16/l1.exe "/scratch/ucsscms/svela/2076940/Gau-1451174.inp" -scrdir="/scratch/ucsscms/svela/2076940/"
 Entering Link 1 = /prod/precompiled/gaussian/16c2/g16/l1.exe PID=   1451175.
  
 Copyright (c) 1988-2021, Gaussian, Inc.  All Rights Reserved.
  
 This is part of the Gaussian(R) 16 program.  It is based on
 the Gaussian(R) 09 system (copyright 2009, Gaussian, Inc.),
 the Gaussian(R) 03 system (copyright 2003, Gaussian, Inc.),
 the Gaussian(R) 98 system (copyright 1998, Gaussian, Inc.),
 the Gaussian(R) 94 system (copyright 1995, Gaussian, Inc.),
 the Gaussian 92(TM) system (copyright 1992, Gaussian, Inc.),
 the Gaussian 90(TM) system (copyright 1990, Gaussian, Inc.),
 the Gaussian 88(TM) system (copyright 1988, Gaussian, Inc.),
 the Gaussian 86(TM) system (copyright 1986, Carnegie Mellon
 University), and the Gaussian 82(TM) system (copyright 1983,
 Carnegie Mellon University). Gaussian is a federally registered
 trademark of Gaussian, Inc.
  
 This software contains proprietary and confidential information,
 including trade secrets, belonging to Gaussian, Inc.
  
 This software is provided under written license and may be
 used, copied, transmitted, or stored only in accord with that
 written license.
  
 The following legend is applicable only to US Government
 contracts under FAR:
  
                    RESTRICTED RIGHTS LEGEND
  
 Use, reproduction and disclosure by the US Government is
 subject to restrictions as set forth in subparagraphs (a)
 and (c) of the Commercial Computer Software - Restricted
 Rights clause in FAR 52.227-19.
  
 Gaussian, Inc.
 340 Quinnipiac St., Bldg. 40, Wallingford CT 06492
  
  
 ---------------------------------------------------------------
 Warning -- This program may not be used in any manner that
 competes with the business of Gaussian, Inc. or will provide
 assistance to any competitor of Gaussian, Inc.  The licensee
 of this program is prohibited from giving any competitor of
 Gaussian, Inc. access to this program.  By using this program,
 the user acknowledges that Gaussian, Inc. is engaged in the
 business of creating and licensing software in the field of
 computational chemistry and represents and warrants to the
 licensee that it is not a competitor of Gaussian, Inc. and that
 it will not use this program in any manner prohibited above.
 ---------------------------------------------------------------
  

 Cite this work as:
 Gaussian 16, Revision C.02,
 M. J. Frisch, G. W. Trucks, H. B. Schlegel, G. E. Scuseria, 
 M. A. Robb, J. R. Cheeseman, G. Scalmani, V. Barone, 
 G. A. Petersson, H. Nakatsuji, X. Li, M. Caricato, A. V. Marenich, 
 J. Bloino, B. G. Janesko, R. Gomperts, B. Mennucci, H. P. Hratchian, 
 J. V. Ortiz, A. F. Izmaylov, J. L. Sonnenberg, D. Williams-Young, 
 F. Ding, F. Lipparini, F. Egidi, J. Goings, B. Peng, A. Petrone, 
 T. Henderson, D. Ranasinghe, V. G. Zakrzewski, J. Gao, N. Rega, 
 G. Zheng, W. Liang, M. Hada, M. Ehara, K. Toyota, R. Fukuda, 
 J. Hasegawa, M. Ishida, T. Nakajima, Y. Honda, O. Kitao, H. Nakai, 
 T. Vreven, K. Throssell, J. A. Montgomery, Jr., J. E. Peralta, 
 F. Ogliaro, M. J. Bearpark, J. J. Heyd, E. N. Brothers, K. N. Kudin, 
 V. N. Staroverov, T. A. Keith, R. Kobayashi, J. Normand, 
 K. Raghavachari, A. P. Rendell, J. C. Burant, S. S. Iyengar, 
 J. Tomasi, M. Cossi, J. M. Millam, M. Klene, C. Adamo, R. Cammi, 
 J. W. Ochterski, R. L. Martin, K. Morokuma, O. Farkas, 
 J. B. Foresman, and D. J. Fox, Gaussian, Inc., Wallingford CT, 2019.
 
 ******************************************
 Gaussian 16:  ES64L-G16RevC.02  7-Dec-2021
                 6-Mar-2026 
 ******************************************
 %nprocs=12
 Will use up to   12 processors via shared memory.
 %mem=18gb
 %chk=test_trans_freq_r1.chk
 ----------------------------------------------------------------------
 #p nosymm scf=(maxconventionalcycles=200,xqc) wB97XD def2SVP freq(hpmo
 des)
 ----------------------------------------------------------------------
 1/10=4,30=1,38=1/1,3;
 2/12=2,15=1,17=6,18=5,40=1/2;
 3/5=43,7=101,11=2,25=1,30=1,71=2,74=-58,140=1/1,2,3;
 4//1;
 5/5=2,8=3,13=1,38=5,85=200,98=1/2,8;
 8/6=4,10=90,11=11/1;
 11/6=1,8=1,9=11,15=111,16=1,31=1/1,2,10;
 10/6=1,31=1/2;
 6/7=2,8=2,9=2,10=2,28=1/1;
 7/8=11,10=1,25=1,30=1/1,2,3,16;
 1/10=4,30=1/3;
 99//99;
 Leave Link    1 at Fri Mar  6 17:31:42 2026, MaxMem=  2415919104 cpu:               0.0 elap:               0.4
 (Enter /prod/precompiled/gaussian/16c2/g16/l101.exe)
 ----------
 Title Card
 ----------
 Symbolic Z-matrix:
 Charge =  0 Multiplicity = 1
 C                    -0.0311   -0.03653   0.03185 
 C                    -0.57793  -1.25098   0.48353 
 Cl                   -2.16268  -1.35724   1.19285 
 C                     0.1864   -2.41737   0.43254 
 C                     1.48172  -2.391    -0.07629 
 C                     2.03776  -1.18886  -0.51199 
 C                     1.28888  -0.02168  -0.43437 
 N                    -0.66901   1.22863   0.05515 
 N                    -1.86037   1.22757  -0.27862 
 C                    -2.49847   2.4926   -0.25547 
 C                    -1.95228   3.70681  -0.70856 
 Cl                   -0.36793   3.81274  -1.41879 
 C                    -2.71693   4.873    -0.65823 
 C                    -4.0119    4.8467   -0.14849 
 C                    -4.56726   3.64482   0.28886 
 C                    -3.8181    2.47779   0.21178 
 H                    -0.25019  -3.34728   0.79947 
 H                     2.06156  -3.31511  -0.11691 
 H                     3.05788  -1.15888  -0.89864 
 H                     1.69738   0.94131  -0.74586 
 H                    -2.28089   5.8027   -1.02639 
 H                    -4.59205   5.77064  -0.10844 
 H                    -5.58709   3.61487   0.67629 
 H                    -4.22613   1.51496   0.5244 
 
 ITRead=  0  0  0  0  0  0  0  0  0  0  0  0  0  0  0  0  0  0  0  0
 ITRead=  0  0  0  0
 MicOpt= -1 -1 -1 -1 -1 -1 -1 -1 -1 -1 -1 -1 -1 -1 -1 -1 -1 -1 -1 -1
 MicOpt= -1 -1 -1 -1
 NAtoms=     24 NQM=       24 NQMF=       0 NMMI=      0 NMMIF=      0
                NMic=       0 NMicF=      0.
                    Isotopes and Nuclear Properties:
 (Nuclear quadrupole moments (NQMom) in fm**2, nuclear magnetic moments (NMagM)
  in nuclear magnetons)

  Atom         1           2           3           4           5           6           7           8           9          10
 IAtWgt=          12          12          35          12          12          12          12          14          14          12
 AtmWgt=  12.0000000  12.0000000  34.9688527  12.0000000  12.0000000  12.0000000  12.0000000  14.0030740  14.0030740  12.0000000
 NucSpn=           0           0           3           0           0           0           0           2           2           0
 AtZEff=  -0.0000000  -0.0000000  -0.0000000  -0.0000000  -0.0000000  -0.0000000  -0.0000000  -0.0000000  -0.0000000  -0.0000000
 NQMom=    0.0000000   0.0000000  -8.1650000   0.0000000   0.0000000   0.0000000   0.0000000   2.0440000   2.0440000   0.0000000
 NMagM=    0.0000000   0.0000000   0.8218740   0.0000000   0.0000000   0.0000000   0.0000000   0.4037610   0.4037610   0.0000000
 AtZNuc=   6.0000000   6.0000000  17.0000000   6.0000000   6.0000000   6.0000000   6.0000000   7.0000000   7.0000000   6.0000000

  Atom        11          12          13          14          15          16          17          18          19          20
 IAtWgt=          12          35          12          12          12          12           1           1           1           1
 AtmWgt=  12.0000000  34.9688527  12.0000000  12.0000000  12.0000000  12.0000000   1.0078250   1.0078250   1.0078250   1.0078250
 NucSpn=           0           3           0           0           0           0           1           1           1           1
 AtZEff=  -0.0000000  -0.0000000  -0.0000000  -0.0000000  -0.0000000  -0.0000000  -0.0000000  -0.0000000  -0.0000000  -0.0000000
 NQMom=    0.0000000  -8.1650000   0.0000000   0.0000000   0.0000000   0.0000000   0.0000000   0.0000000   0.0000000   0.0000000
 NMagM=    0.0000000   0.8218740   0.0000000   0.0000000   0.0000000   0.0000000   2.7928460   2.7928460   2.7928460   2.7928460
 AtZNuc=   6.0000000  17.0000000   6.0000000   6.0000000   6.0000000   6.0000000   1.0000000   1.0000000   1.0000000   1.0000000

  Atom        21          22          23          24
 IAtWgt=           1           1           1           1
 AtmWgt=   1.0078250   1.0078250   1.0078250   1.0078250
 NucSpn=           1           1           1           1
 AtZEff=  -0.0000000  -0.0000000  -0.0000000  -0.0000000
 NQMom=    0.0000000   0.0000000   0.0000000   0.0000000
 NMagM=    2.7928460   2.7928460   2.7928460   2.7928460
 AtZNuc=   1.0000000   1.0000000   1.0000000   1.0000000
 Leave Link  101 at Fri Mar  6 17:31:42 2026, MaxMem=  2415919104 cpu:               0.1 elap:               0.1
 (Enter /prod/precompiled/gaussian/16c2/g16/l103.exe)

 GradGradGradGradGradGradGradGradGradGradGradGradGradGradGradGradGradGrad
 Berny optimization.
 Initialization pass.
 Trust Radius=3.00D-01 FncErr=1.00D-07 GrdErr=1.00D-07 EigMax=2.50D+02 EigMin=1.00D-04
 Number of steps in this run=      2 maximum allowed number of steps=      2.
 GradGradGradGradGradGradGradGradGradGradGradGradGradGradGradGradGradGrad

 Leave Link  103 at Fri Mar  6 17:31:42 2026, MaxMem=  2415919104 cpu:               0.1 elap:               0.1
 (Enter /prod/precompiled/gaussian/16c2/g16/l202.exe)
                          Input orientation:                          
 ---------------------------------------------------------------------
 Center     Atomic      Atomic             Coordinates (Angstroms)
 Number     Number       Type             X           Y           Z
 ---------------------------------------------------------------------
      1          6           0       -0.031101   -0.036525    0.031850
      2          6           0       -0.577926   -1.250982    0.483530
      3         17           0       -2.162683   -1.357237    1.192851
      4          6           0        0.186399   -2.417369    0.432536
      5          6           0        1.481719   -2.391000   -0.076293
      6          6           0        2.037764   -1.188863   -0.511987
      7          6           0        1.288881   -0.021682   -0.434370
      8          7           0       -0.669007    1.228632    0.055147
      9          7           0       -1.860367    1.227568   -0.278621
     10          6           0       -2.498470    2.492601   -0.255467
     11          6           0       -1.952277    3.706806   -0.708562
     12         17           0       -0.367930    3.812741   -1.418789
     13          6           0       -2.716934    4.873003   -0.658228
     14          6           0       -4.011902    4.846703   -0.148488
     15          6           0       -4.567258    3.644816    0.288859
     16          6           0       -3.818100    2.477788    0.211776
     17          1           0       -0.250194   -3.347280    0.799465
     18          1           0        2.061558   -3.315113   -0.116908
     19          1           0        3.057876   -1.158883   -0.898642
     20          1           0        1.697375    0.941305   -0.745862
     21          1           0       -2.280891    5.802699   -1.026393
     22          1           0       -4.592048    5.770638   -0.108442
     23          1           0       -5.587094    3.614874    0.676287
     24          1           0       -4.226131    1.514958    0.524398
 ---------------------------------------------------------------------
                    Distance matrix (angstroms):
                    1          2          3          4          5
     1  C    0.000000
     2  C    1.406392   0.000000
     3  Cl   2.763303   1.739506   0.000000
     4  C    2.424103   1.395440   2.687033   0.000000
     5  C    2.800691   2.419748   3.995129   1.391925   0.000000
     6  C    2.429783   2.799419   4.536362   2.414312   1.394327
     7  C    1.399976   2.416338   4.042876   2.776024   2.403970
     8  N    1.417071   2.517994   3.195647   3.763969   4.212438
     9  N    2.245114   2.892877   2.989622   4.240349   4.929960
    10  C    3.544988   4.271887   4.126940   5.638233   6.302663
    11  C    4.272195   5.281059   5.413333   6.586468   7.026758
    12  Cl   4.127306   5.413336   6.063866   6.522956   6.611346
    13  C    5.638561   6.586513   6.523004   7.922666   8.410296
    14  C    6.302794   7.026621   6.611178   8.410117   9.086772
    15  C    5.847653   6.318347   5.623141   7.705062   8.553042
    16  C    4.549231   4.947353   4.290726   6.328294   7.202511
    17  H    3.405633   2.145155   2.787945   1.090864   2.163549
    18  H    3.892363   3.404121   4.836627   2.150361   1.091718
    19  H    3.415740   3.890750   5.627426   3.406054   2.163017
    20  H    2.132749   3.390357   4.893051   3.866828   3.405743
    21  H    6.346493   7.411773   7.496913   8.705487   9.066236
    22  H    7.385463   8.109670   7.642106   9.495771  10.173692
    23  H    6.679601   6.986091   6.059317   8.353478   9.306182
    24  H    4.499776   4.578372   3.599188   5.911181   6.942398
                    6          7          8          9         10
     6  C    0.000000
     7  C    1.388943   0.000000
     8  N    3.673218   2.374076   0.000000
     9  N    4.592279   3.391555   1.237231   0.000000
    10  C    5.847769   4.549467   2.245225   1.417046   0.000000
    11  C    6.318753   4.947920   2.893334   2.517919   1.406384
    12  Cl   5.623673   4.291492   2.990109   3.195383   2.763203
    13  C    7.705502   6.328871   4.240796   3.763908   2.424099
    14  C    8.553283   7.202861   4.930198   4.212384   2.800664
    15  C    8.223875   6.946987   4.592268   3.673198   2.429768
    16  C    6.946892   5.722422   3.391417   2.374080   1.399985
    17  H    3.407847   3.866614   4.654931   4.968316   6.346010
    18  H    2.162774   3.397720   5.303886   6.003632   7.385296
    19  H    1.091343   2.153629   4.527648   5.501699   6.679820
    20  H    2.169834   1.091439   2.514744   3.599693   4.500236
    21  H    8.233914   6.856907   4.968902   4.654871   3.405645
    22  H    9.620390   8.260903   6.003901   5.303822   3.892327
    23  H    9.089903   7.857298   5.501595   4.527645   3.415737
    24  H    6.900806   5.804813   3.599349   2.514810   2.132789
                   11         12         13         14         15
    11  C    0.000000
    12  Cl   1.739483   0.000000
    13  C    1.395439   2.687085   0.000000
    14  C    2.419732   3.995156   1.391930   0.000000
    15  C    2.799432   4.536366   2.414356   1.394355   0.000000
    16  C    2.416361   4.042835   2.776063   2.403977   1.388933
    17  H    7.411569   7.496693   8.705328   9.065893   8.233296
    18  H    8.109764   7.642225   9.495907  10.173650   9.620107
    19  H    6.986608   6.060012   8.354034   9.306533   9.090014
    20  H    4.579230   3.600481   5.912026   6.942970   6.901105
    21  H    2.145174   2.788069   1.090877   2.163572   3.407906
    22  H    3.404106   4.836687   2.150364   1.091709   2.162772
    23  H    3.890778   5.627448   3.406118   2.163073   1.091358
    24  H    3.390398   4.893005   3.866878   3.405759   2.169825
                   16         17         18         19         20
    16  C    0.000000
    17  H    6.856147   0.000000
    18  H    8.260515   2.486960   0.000000
    19  H    7.857318   4.314623   2.500617   0.000000
    20  H    5.805025   4.957118   4.318021   2.507009   0.000000
    21  H    3.866666   9.548801  10.139947   8.773960   6.287961
    22  H    3.397705  10.139646  11.261501  10.352005   7.955225
    23  H    2.153619   8.773213  10.351606  10.000233   7.888851
    24  H    1.091450   6.286899   7.954615   7.888677   6.085274
                   21         22         23         24
    21  H    0.000000
    22  H    2.486988   0.000000
    23  H    4.314705   2.500647   0.000000
    24  H    4.957180   4.318008   2.506978   0.000000
 Symmetry turned off by external request.
 Stoichiometry    C12H8Cl2N2
 Framework group  C1[X(C12H8Cl2N2)]
 Deg. of freedom    66
 Full point group                 C1      NOp   1
 Rotational constants (GHZ):           0.8224950           0.2602572           0.1987448
 Leave Link  202 at Fri Mar  6 17:31:42 2026, MaxMem=  2415919104 cpu:               0.1 elap:               0.0
 (Enter /prod/precompiled/gaussian/16c2/g16/l301.exe)
 Standard basis: def2SVP (5D, 7F)
 Ernie: Thresh=  0.10000D-02 Tol=  0.10000D-05 Strict=F.
   272 basis functions,   480 primitive gaussians,   288 cartesian basis functions
    64 alpha electrons       64 beta electrons
       nuclear repulsion energy      1195.8722717713 Hartrees.
 IExCor= 4639 DFT=T Ex+Corr=wB97XD ExCW=0 ScaHFX=  1.000000
 ScaDFX=  1.000000  1.000000  1.000000  1.000000 ScalE2=  1.000000  1.000000
 IRadAn=      5 IRanWt=     -1 IRanGd=            0 ICorTp=0 IEmpDi=121
 HFx  wShort=  0.000000 wLong=  0.200000 cFull=  0.222036 cShort=  0.000000 cLong=  0.777964
 DFx  wShort=  0.000000 wLong=  0.200000 cFull=  0.000000 cShort=  0.000000 cLong=  1.000000
 NAtoms=   24 NActive=   24 NUniq=   24 SFac= 1.00D+00 NAtFMM=   60 NAOKFM=F Big=F
 Integral buffers will be    131072 words long.
 Raffenetti 2 integral format.
 Two-electron integral symmetry is turned off.
 R6Disp:  Grimme-D2 Dispersion energy=       -0.0136233671 Hartrees.
 Nuclear repulsion after empirical dispersion term =     1195.8586484042 Hartrees.
 Leave Link  301 at Fri Mar  6 17:31:42 2026, MaxMem=  2415919104 cpu:               0.1 elap:               0.1
 (Enter /prod/precompiled/gaussian/16c2/g16/l302.exe)
 NPDir=0 NMtPBC=     1 NCelOv=     1 NCel=       1 NClECP=     1 NCelD=      1
         NCelK=      1 NCelE2=     1 NClLst=     1 CellRange=     0.0.
 One-electron integrals computed using PRISM.
   1 Symmetry operations used in ECPInt.
 ECPInt:  NShTT=    7750 NPrTT=   30142 LenC2=    6990 LenP2D=   18945.
 LDataN:  DoStor=T MaxTD1= 4 Len=   56
 NBasis=   272 RedAO= T EigKep=  2.30D-04  NBF=   272
 NBsUse=   272 1.00D-06 EigRej= -1.00D+00 NBFU=   272
 Precomputing XC quadrature grid using
 IXCGrd= 4 IRadAn=           5 IRanWt=          -1 IRanGd=           0 AccXCQ= 0.00D+00.
 Generated NRdTot=       0 NPtTot=           0 NUsed=           0 NTot=          32
 NSgBfM=   286   286   286   286   286 MxSgAt=    24 MxSgA2=    24.
 Leave Link  302 at Fri Mar  6 17:31:42 2026, MaxMem=  2415919104 cpu:               1.4 elap:               0.3
 (Enter /prod/precompiled/gaussian/16c2/g16/l303.exe)
 DipDrv:  MaxL=1.
 Leave Link  303 at Fri Mar  6 17:31:42 2026, MaxMem=  2415919104 cpu:               0.2 elap:               0.1
 (Enter /prod/precompiled/gaussian/16c2/g16/l401.exe)
 ExpMin= 1.22D-01 ExpMax= 1.04D+04 ExpMxC= 1.57D+03 IAcc=3 IRadAn=         5 AccDes= 0.00D+00
 Harris functional with IExCor= 4639 and IRadAn=       5 diagonalized for initial guess.
 HarFok:  IExCor= 4639 AccDes= 0.00D+00 IRadAn=         5 IDoV= 1 UseB2=F ITyADJ=14
 ICtDFT=  3500011 ScaDFX=  1.000000  1.000000  1.000000  1.000000
 FoFCou: FMM=F IPFlag=           0 FMFlag=      100000 FMFlg1=           0
         NFxFlg=           0 DoJE=T BraDBF=F KetDBF=T FulRan=T
         wScrn=  0.000000 ICntrl=       500 IOpCl=  0 I1Cent=   200000004 NGrid=           0
         NMat0=    1 NMatS0=      1 NMatT0=    0 NMatD0=    1 NMtDS0=    0 NMtDT0=    0
 Symmetry not used in FoFCou.
 Harris En= -1450.79503314817    
 JPrj=0 DoOrth=F DoCkMO=F.
 Leave Link  401 at Fri Mar  6 17:31:43 2026, MaxMem=  2415919104 cpu:               4.9 elap:               0.6
 (Enter /prod/precompiled/gaussian/16c2/g16/l502.exe)
 Two-electron integral symmetry not used.
 Closed shell SCF:
 Using DIIS extrapolation, IDIIS=  1040.
 NGot=  2415919104 LenX=  2415746906 LenY=  2415663521
 Requested convergence on RMS density matrix=1.00D-08 within 200 cycles.
 Requested convergence on MAX density matrix=1.00D-06.
 Requested convergence on             energy=1.00D-06.
 No special actions if energy rises.
 Fock matrices will be formed incrementally for  20 cycles.
 Integral accuracy reduced to 1.0D-05 until final iterations.

 Cycle   1  Pass 0  IDiag  1:
 FoFJK:  IHMeth= 1 ICntrl=       0 DoSepK=T KAlg= 0 I1Cent=           0 FoldK=F
 IRaf=         1 NMat=       1 IRICut=       1 DoRegI=T DoRafI=F ISym2E= 0 IDoP0=0 IntGTp=1.
 FoFCou: FMM=F IPFlag=           0 FMFlag=      100000 FMFlg1=           0
         NFxFlg=           0 DoJE=T BraDBF=F KetDBF=F FulRan=T
         wScrn=  0.000000 ICntrl=       500 IOpCl=  0 I1Cent=           0 NGrid=           0
         NMat0=    1 NMatS0=      1 NMatT0=    0 NMatD0=    1 NMtDS0=    0 NMtDT0=    0
 Symmetry not used in FoFCou.
 E= -1490.63347885243    
 DIIS: error= 5.08D-02 at cycle   1 NSaved=   1.
 NSaved= 1 IEnMin= 1 EnMin= -1490.63347885243     IErMin= 1 ErrMin= 5.08D-02
 ErrMax= 5.08D-02  0.00D+00 EMaxC= 1.00D-01 BMatC= 6.99D-01 BMatP= 6.99D-01
 IDIUse=3 WtCom= 4.92D-01 WtEn= 5.08D-01
 Coeff-Com:  0.100D+01
 Coeff-En:   0.100D+01
 Coeff:      0.100D+01
 Gap=     0.404 Goal=   None    Shift=    0.000
 GapD=    0.404 DampG=2.000 DampE=0.500 DampFc=1.0000 IDamp=-1.
 RMSDP=6.14D-03 MaxDP=2.67D-01              OVMax= 2.13D-01

 Cycle   2  Pass 0  IDiag  1:
 RMSU=  6.04D-03    CP:  9.59D-01
 E= -1490.76642617276     Delta-E=       -0.132947320336 Rises=F Damp=F
 DIIS: error= 2.55D-02 at cycle   2 NSaved=   2.
 NSaved= 2 IEnMin= 2 EnMin= -1490.76642617276     IErMin= 2 ErrMin= 2.55D-02
 ErrMax= 2.55D-02  0.00D+00 EMaxC= 1.00D-01 BMatC= 2.63D-01 BMatP= 6.99D-01
 IDIUse=3 WtCom= 7.45D-01 WtEn= 2.55D-01
 Coeff-Com:  0.358D+00 0.642D+00
 Coeff-En:   0.375D+00 0.625D+00
 Coeff:      0.362D+00 0.638D+00
 Gap=     0.397 Goal=   None    Shift=    0.000
 RMSDP=3.12D-03 MaxDP=1.21D-01 DE=-1.33D-01 OVMax= 1.78D-01

 Cycle   3  Pass 0  IDiag  1:
 RMSU=  2.04D-03    CP:  9.63D-01  6.10D-01
 E= -1491.00158419894     Delta-E=       -0.235158026173 Rises=F Damp=F
 DIIS: error= 9.48D-03 at cycle   3 NSaved=   3.
 NSaved= 3 IEnMin= 3 EnMin= -1491.00158419894     IErMin= 3 ErrMin= 9.48D-03
 ErrMax= 9.48D-03  0.00D+00 EMaxC= 1.00D-01 BMatC= 2.92D-02 BMatP= 2.63D-01
 IDIUse=3 WtCom= 9.05D-01 WtEn= 9.48D-02
 Coeff-Com:  0.562D-01 0.262D+00 0.681D+00
 Coeff-En:   0.000D+00 0.000D+00 0.100D+01
 Coeff:      0.508D-01 0.237D+00 0.712D+00
 Gap=     0.307 Goal=   None    Shift=    0.000
 RMSDP=1.07D-03 MaxDP=2.36D-02 DE=-2.35D-01 OVMax= 5.59D-02

 Cycle   4  Pass 0  IDiag  1:
 RMSU=  7.41D-04    CP:  9.57D-01  7.06D-01  7.66D-01
 E= -1491.03065865277     Delta-E=       -0.029074453838 Rises=F Damp=F
 DIIS: error= 3.89D-03 at cycle   4 NSaved=   4.
 NSaved= 4 IEnMin= 4 EnMin= -1491.03065865277     IErMin= 4 ErrMin= 3.89D-03
 ErrMax= 3.89D-03  0.00D+00 EMaxC= 1.00D-01 BMatC= 2.97D-03 BMatP= 2.92D-02
 IDIUse=3 WtCom= 9.61D-01 WtEn= 3.89D-02
 Coeff-Com: -0.364D-02 0.483D-01 0.301D+00 0.655D+00
 Coeff-En:   0.000D+00 0.000D+00 0.000D+00 0.100D+01
 Coeff:     -0.350D-02 0.465D-01 0.289D+00 0.668D+00
 Gap=     0.289 Goal=   None    Shift=    0.000
 RMSDP=3.05D-04 MaxDP=8.28D-03 DE=-2.91D-02 OVMax= 2.13D-02

 Cycle   5  Pass 0  IDiag  1:
 RMSU=  1.44D-04    CP:  9.56D-01  7.06D-01  8.68D-01  7.73D-01
 E= -1491.03385836790     Delta-E=       -0.003199715125 Rises=F Damp=F
 DIIS: error= 7.50D-04 at cycle   5 NSaved=   5.
 NSaved= 5 IEnMin= 5 EnMin= -1491.03385836790     IErMin= 5 ErrMin= 7.50D-04
 ErrMax= 7.50D-04  0.00D+00 EMaxC= 1.00D-01 BMatC= 1.56D-04 BMatP= 2.97D-03
 IDIUse=3 WtCom= 9.93D-01 WtEn= 7.50D-03
 Coeff-Com: -0.473D-02-0.394D-02 0.507D-01 0.245D+00 0.713D+00
 Coeff-En:   0.000D+00 0.000D+00 0.000D+00 0.000D+00 0.100D+01
 Coeff:     -0.469D-02-0.391D-02 0.504D-01 0.243D+00 0.715D+00
 Gap=     0.287 Goal=   None    Shift=    0.000
 RMSDP=8.31D-05 MaxDP=1.99D-03 DE=-3.20D-03 OVMax= 5.71D-03

 Cycle   6  Pass 0  IDiag  1:
 RMSU=  6.23D-05    CP:  9.56D-01  7.09D-01  8.70D-01  8.40D-01  8.90D-01
 E= -1491.03408343147     Delta-E=       -0.000225063573 Rises=F Damp=F
 DIIS: error= 3.56D-04 at cycle   6 NSaved=   6.
 NSaved= 6 IEnMin= 6 EnMin= -1491.03408343147     IErMin= 6 ErrMin= 3.56D-04
 ErrMax= 3.56D-04  0.00D+00 EMaxC= 1.00D-01 BMatC= 2.09D-05 BMatP= 1.56D-04
 IDIUse=3 WtCom= 9.96D-01 WtEn= 3.56D-03
 Coeff-Com: -0.649D-03-0.118D-01-0.404D-01-0.385D-01 0.251D+00 0.841D+00
 Coeff-En:   0.000D+00 0.000D+00 0.000D+00 0.000D+00 0.000D+00 0.100D+01
 Coeff:     -0.647D-03-0.118D-01-0.402D-01-0.384D-01 0.250D+00 0.841D+00
 Gap=     0.288 Goal=   None    Shift=    0.000
 RMSDP=4.15D-05 MaxDP=8.45D-04 DE=-2.25D-04 OVMax= 3.70D-03

 Cycle   7  Pass 0  IDiag  1:
 RMSU=  2.06D-05    CP:  9.56D-01  7.09D-01  8.78D-01  8.67D-01  1.06D+00
                    CP:  1.08D+00
 E= -1491.03413066072     Delta-E=       -0.000047229250 Rises=F Damp=F
 DIIS: error= 8.96D-05 at cycle   7 NSaved=   7.
 NSaved= 7 IEnMin= 7 EnMin= -1491.03413066072     IErMin= 7 ErrMin= 8.96D-05
 ErrMax= 8.96D-05  0.00D+00 EMaxC= 1.00D-01 BMatC= 1.58D-06 BMatP= 2.09D-05
 IDIUse=1 WtCom= 1.00D+00 WtEn= 0.00D+00
 Coeff-Com:  0.279D-03-0.332D-02-0.173D-01-0.364D-01 0.100D-01 0.215D+00
 Coeff-Com:  0.832D+00
 Coeff:      0.279D-03-0.332D-02-0.173D-01-0.364D-01 0.100D-01 0.215D+00
 Coeff:      0.832D+00
 Gap=     0.288 Goal=   None    Shift=    0.000
 RMSDP=1.43D-05 MaxDP=2.97D-04 DE=-4.72D-05 OVMax= 1.69D-03

 Cycle   8  Pass 0  IDiag  1:
 RMSU=  8.70D-06    CP:  9.56D-01  7.09D-01  8.79D-01  8.69D-01  1.10D+00
                    CP:  1.21D+00  1.19D+00
 E= -1491.03413676943     Delta-E=       -0.000006108709 Rises=F Damp=F
 DIIS: error= 5.39D-05 at cycle   8 NSaved=   8.
 NSaved= 8 IEnMin= 8 EnMin= -1491.03413676943     IErMin= 8 ErrMin= 5.39D-05
 ErrMax= 5.39D-05  0.00D+00 EMaxC= 1.00D-01 BMatC= 3.52D-07 BMatP= 1.58D-06
 IDIUse=1 WtCom= 1.00D+00 WtEn= 0.00D+00
 Coeff-Com:  0.122D-03 0.172D-02 0.468D-02-0.547D-03-0.511D-01-0.143D+00
 Coeff-Com:  0.181D+00 0.101D+01
 Coeff:      0.122D-03 0.172D-02 0.468D-02-0.547D-03-0.511D-01-0.143D+00
 Coeff:      0.181D+00 0.101D+01
 Gap=     0.288 Goal=   None    Shift=    0.000
 RMSDP=9.09D-06 MaxDP=1.57D-04 DE=-6.11D-06 OVMax= 1.10D-03

 Initial convergence to 1.0D-05 achieved.  Increase integral accuracy.
 Cycle   9  Pass 1  IDiag  1:
 E= -1491.03414003751     Delta-E=       -0.000003268075 Rises=F Damp=F
 DIIS: error= 1.29D-04 at cycle   1 NSaved=   1.
 NSaved= 1 IEnMin= 1 EnMin= -1491.03414003751     IErMin= 1 ErrMin= 1.29D-04
 ErrMax= 1.29D-04  0.00D+00 EMaxC= 1.00D-01 BMatC= 9.97D-07 BMatP= 9.97D-07
 IDIUse=3 WtCom= 9.99D-01 WtEn= 1.29D-03
 Coeff-Com:  0.100D+01
 Coeff-En:   0.100D+01
 Coeff:      0.100D+01
 Gap=     0.288 Goal=   None    Shift=    0.000
 RMSDP=9.09D-06 MaxDP=1.57D-04 DE=-3.27D-06 OVMax= 4.12D-04

 Cycle  10  Pass 1  IDiag  1:
 RMSU=  9.87D-05    CP:  1.00D+00
 E= -1491.03414118988     Delta-E=       -0.000001152374 Rises=F Damp=F
 DIIS: error= 1.32D-05 at cycle   2 NSaved=   2.
 NSaved= 2 IEnMin= 2 EnMin= -1491.03414118988     IErMin= 2 ErrMin= 1.32D-05
 ErrMax= 1.32D-05  0.00D+00 EMaxC= 1.00D-01 BMatC= 6.98D-08 BMatP= 9.97D-07
 IDIUse=1 WtCom= 1.00D+00 WtEn= 0.00D+00
 Coeff-Com:  0.498D-01 0.950D+00
 Coeff:      0.498D-01 0.950D+00
 Gap=     0.288 Goal=   None    Shift=    0.000
 RMSDP=5.64D-06 MaxDP=1.05D-04 DE=-1.15D-06 OVMax= 2.68D-04

 Cycle  11  Pass 1  IDiag  1:
 RMSU=  2.99D-06    CP:  1.00D+00  1.05D+00
 E= -1491.03414127830     Delta-E=       -0.000000088420 Rises=F Damp=F
 DIIS: error= 1.48D-05 at cycle   3 NSaved=   3.
 NSaved= 3 IEnMin= 3 EnMin= -1491.03414127830     IErMin= 2 ErrMin= 1.32D-05
 ErrMax= 1.48D-05  0.00D+00 EMaxC= 1.00D-01 BMatC= 6.54D-08 BMatP= 6.98D-08
 IDIUse=1 WtCom= 1.00D+00 WtEn= 0.00D+00
 Coeff-Com: -0.379D-01 0.501D+00 0.537D+00
 Coeff:     -0.379D-01 0.501D+00 0.537D+00
 Gap=     0.288 Goal=   None    Shift=    0.000
 RMSDP=1.61D-06 MaxDP=3.23D-05 DE=-8.84D-08 OVMax= 1.04D-04

 Cycle  12  Pass 1  IDiag  1:
 RMSU=  1.39D-06    CP:  1.00D+00  1.06D+00  9.02D-01
 E= -1491.03414136692     Delta-E=       -0.000000088623 Rises=F Damp=F
 DIIS: error= 6.25D-06 at cycle   4 NSaved=   4.
 NSaved= 4 IEnMin= 4 EnMin= -1491.03414136692     IErMin= 4 ErrMin= 6.25D-06
 ErrMax= 6.25D-06  0.00D+00 EMaxC= 1.00D-01 BMatC= 3.05D-09 BMatP= 6.54D-08
 IDIUse=1 WtCom= 1.00D+00 WtEn= 0.00D+00
 Coeff-Com:  0.213D-02-0.174D+00-0.106D+00 0.128D+01
 Coeff:      0.213D-02-0.174D+00-0.106D+00 0.128D+01
 Gap=     0.288 Goal=   None    Shift=    0.000
 RMSDP=1.16D-06 MaxDP=2.66D-05 DE=-8.86D-08 OVMax= 1.79D-04

 Cycle  13  Pass 1  IDiag  1:
 RMSU=  6.41D-07    CP:  1.00D+00  1.06D+00  1.11D+00  1.53D+00
 E= -1491.03414139387     Delta-E=       -0.000000026951 Rises=F Damp=F
 DIIS: error= 2.97D-06 at cycle   5 NSaved=   5.
 NSaved= 5 IEnMin= 5 EnMin= -1491.03414139387     IErMin= 5 ErrMin= 2.97D-06
 ErrMax= 2.97D-06  0.00D+00 EMaxC= 1.00D-01 BMatC= 1.35D-09 BMatP= 3.05D-09
 IDIUse=1 WtCom= 1.00D+00 WtEn= 0.00D+00
 Coeff-Com:  0.135D-01-0.242D+00-0.234D+00 0.534D+00 0.928D+00
 Coeff:      0.135D-01-0.242D+00-0.234D+00 0.534D+00 0.928D+00
 Gap=     0.288 Goal=   None    Shift=    0.000
 RMSDP=7.99D-07 MaxDP=2.03D-05 DE=-2.70D-08 OVMax= 1.25D-04

 Cycle  14  Pass 1  IDiag  1:
 RMSU=  2.53D-07    CP:  1.00D+00  1.06D+00  1.23D+00  1.92D+00  1.59D+00
 E= -1491.03414140256     Delta-E=       -0.000000008688 Rises=F Damp=F
 DIIS: error= 1.17D-06 at cycle   6 NSaved=   6.
 NSaved= 6 IEnMin= 6 EnMin= -1491.03414140256     IErMin= 6 ErrMin= 1.17D-06
 ErrMax= 1.17D-06  0.00D+00 EMaxC= 1.00D-01 BMatC= 3.94D-10 BMatP= 1.35D-09
 IDIUse=1 WtCom= 1.00D+00 WtEn= 0.00D+00
 Coeff-Com:  0.642D-02-0.837D-01-0.983D-01-0.114D-01 0.484D+00 0.703D+00
 Coeff:      0.642D-02-0.837D-01-0.983D-01-0.114D-01 0.484D+00 0.703D+00
 Gap=     0.288 Goal=   None    Shift=    0.000
 RMSDP=2.85D-07 MaxDP=8.34D-06 DE=-8.69D-09 OVMax= 4.36D-05

 Cycle  15  Pass 1  IDiag  1:
 RMSU=  9.88D-08    CP:  1.00D+00  1.06D+00  1.26D+00  2.05D+00  1.87D+00
                    CP:  1.08D+00
 E= -1491.03414140375     Delta-E=       -0.000000001191 Rises=F Damp=F
 DIIS: error= 4.25D-07 at cycle   7 NSaved=   7.
 NSaved= 7 IEnMin= 7 EnMin= -1491.03414140375     IErMin= 7 ErrMin= 4.25D-07
 ErrMax= 4.25D-07  0.00D+00 EMaxC= 1.00D-01 BMatC= 4.60D-11 BMatP= 3.94D-10
 IDIUse=1 WtCom= 1.00D+00 WtEn= 0.00D+00
 Coeff-Com: -0.217D-03 0.172D-01 0.834D-02-0.108D+00-0.612D-02 0.256D+00
 Coeff-Com:  0.833D+00
 Coeff:     -0.217D-03 0.172D-01 0.834D-02-0.108D+00-0.612D-02 0.256D+00
 Coeff:      0.833D+00
 Gap=     0.288 Goal=   None    Shift=    0.000
 RMSDP=1.02D-07 MaxDP=2.40D-06 DE=-1.19D-09 OVMax= 1.56D-05

 Cycle  16  Pass 1  IDiag  1:
 RMSU=  4.03D-08    CP:  1.00D+00  1.06D+00  1.27D+00  2.08D+00  1.97D+00
                    CP:  1.22D+00  1.09D+00
 E= -1491.03414140388     Delta-E=       -0.000000000132 Rises=F Damp=F
 DIIS: error= 2.09D-07 at cycle   8 NSaved=   8.
 NSaved= 8 IEnMin= 8 EnMin= -1491.03414140388     IErMin= 8 ErrMin= 2.09D-07
 ErrMax= 2.09D-07  0.00D+00 EMaxC= 1.00D-01 BMatC= 8.35D-12 BMatP= 4.60D-11
 IDIUse=1 WtCom= 1.00D+00 WtEn= 0.00D+00
 Coeff-Com: -0.101D-02 0.190D-01 0.171D-01-0.426D-01-0.736D-01-0.207D-02
 Coeff-Com:  0.343D+00 0.740D+00
 Coeff:     -0.101D-02 0.190D-01 0.171D-01-0.426D-01-0.736D-01-0.207D-02
 Coeff:      0.343D+00 0.740D+00
 Gap=     0.288 Goal=   None    Shift=    0.000
 RMSDP=3.36D-08 MaxDP=7.73D-07 DE=-1.32D-10 OVMax= 4.49D-06

 Cycle  17  Pass 1  IDiag  1:
 RMSU=  1.62D-08    CP:  1.00D+00  1.06D+00  1.27D+00  2.10D+00  1.99D+00
                    CP:  1.25D+00  1.22D+00  1.18D+00
 E= -1491.03414140392     Delta-E=       -0.000000000036 Rises=F Damp=F
 DIIS: error= 7.39D-08 at cycle   9 NSaved=   9.
 NSaved= 9 IEnMin= 9 EnMin= -1491.03414140392     IErMin= 9 ErrMin= 7.39D-08
 ErrMax= 7.39D-08  0.00D+00 EMaxC= 1.00D-01 BMatC= 9.43D-13 BMatP= 8.35D-12
 IDIUse=1 WtCom= 1.00D+00 WtEn= 0.00D+00
 Coeff-Com: -0.208D-03 0.177D-02 0.265D-02 0.615D-02-0.133D-01-0.398D-01
 Coeff-Com: -0.645D-01 0.145D+00 0.962D+00
 Coeff:     -0.208D-03 0.177D-02 0.265D-02 0.615D-02-0.133D-01-0.398D-01
 Coeff:     -0.645D-01 0.145D+00 0.962D+00
 Gap=     0.288 Goal=   None    Shift=    0.000
 RMSDP=1.52D-08 MaxDP=2.42D-07 DE=-3.59D-11 OVMax= 1.43D-06

 Cycle  18  Pass 1  IDiag  1:
 RMSU=  7.41D-09    CP:  1.00D+00  1.06D+00  1.27D+00  2.10D+00  2.00D+00
                    CP:  1.26D+00  1.27D+00  1.40D+00  1.19D+00
 E= -1491.03414140392     Delta-E=        0.000000000005 Rises=F Damp=F
 DIIS: error= 4.62D-08 at cycle  10 NSaved=  10.
 NSaved=10 IEnMin= 9 EnMin= -1491.03414140392     IErMin=10 ErrMin= 4.62D-08
 ErrMax= 4.62D-08  0.00D+00 EMaxC= 1.00D-01 BMatC= 2.71D-13 BMatP= 9.43D-13
 IDIUse=1 WtCom= 1.00D+00 WtEn= 0.00D+00
 Coeff-Com:  0.102D-03-0.283D-02-0.207D-02 0.106D-01 0.912D-02-0.151D-01
 Coeff-Com: -0.929D-01-0.879D-01 0.391D+00 0.790D+00
 Coeff:      0.102D-03-0.283D-02-0.207D-02 0.106D-01 0.912D-02-0.151D-01
 Coeff:     -0.929D-01-0.879D-01 0.391D+00 0.790D+00
 Gap=     0.288 Goal=   None    Shift=    0.000
 RMSDP=5.43D-09 MaxDP=9.78D-08 DE= 5.00D-12 OVMax= 4.99D-07

 SCF Done:  E(RwB97XD) =  -1491.03414140     A.U. after   18 cycles
            NFock= 18  Conv=0.54D-08     -V/T= 2.0052
 KE= 1.483286593400D+03 PE=-5.902622397960D+03 EE= 1.732443014751D+03
 Leave Link  502 at Fri Mar  6 17:31:59 2026, MaxMem=  2415919104 cpu:             160.0 elap:              15.9
 (Enter /prod/precompiled/gaussian/16c2/g16/l508.exe)
 QCSCF skips out because SCF is already converged.
 Leave Link  508 at Fri Mar  6 17:31:59 2026, MaxMem=  2415919104 cpu:               0.1 elap:               0.1
 (Enter /prod/precompiled/gaussian/16c2/g16/l801.exe)
 DoSCS=F DFT=T ScalE2(SS,OS)=  1.000000  1.000000
 Range of M.O.s used for correlation:     1   272
 NBasis=   272 NAE=    64 NBE=    64 NFC=     0 NFV=     0
 NROrb=    272 NOA=    64 NOB=    64 NVA=   208 NVB=   208

 **** Warning!!: The largest alpha MO coefficient is  0.12517133D+02

 Leave Link  801 at Fri Mar  6 17:31:59 2026, MaxMem=  2415919104 cpu:               0.2 elap:               0.1
 (Enter /prod/precompiled/gaussian/16c2/g16/l1101.exe)
 Using compressed storage, NAtomX=    24.
 Will process     25 centers per pass.
   1 Symmetry operations used in ECPInt.
 ECPInt:  NShTT=    7750 NPrTT=   30142 LenC2=    6990 LenP2D=   18945.
 LDataN:  DoStor=T MaxTD1= 5 Len=  102
 R6Disp: Adding Grimme-D2 dispersion energy 1st derivatives to the gradient.
 Leave Link 1101 at Fri Mar  6 17:32:00 2026, MaxMem=  2415919104 cpu:               1.6 elap:               0.4
 (Enter /prod/precompiled/gaussian/16c2/g16/l1102.exe)
 Symmetrizing basis deriv contribution to polar:
 IMax=3 JMax=2 DiffMx= 0.00D+00
 Leave Link 1102 at Fri Mar  6 17:32:00 2026, MaxMem=  2415919104 cpu:               0.2 elap:               0.2
 (Enter /prod/precompiled/gaussian/16c2/g16/l1110.exe)
 Forming Gx(P) for the SCF density, NAtomX=    24.
 Integral derivatives from FoFJK, PRISM(SPDF).
 Do as many integral derivatives as possible in FoFJK.
 G2DrvN: MDV=    2415916544.
 G2DrvN: will do    25 centers at a time, making    1 passes.
 Calling FoFCou, ICntrl=  3107 FMM=F I1Cent=   0 AccDes= 0.00D+00.
 FoFJK:  IHMeth= 1 ICntrl=    3107 DoSepK=T KAlg= 0 I1Cent=           0 FoldK=F
 IRaf=         1 NMat=       1 IRICut=       1 DoRegI=T DoRafI=F ISym2E= 0 IDoP0=0 IntGTp=1.
 FoFCou: FMM=F IPFlag=           0 FMFlag=      100000 FMFlg1=           0
         NFxFlg=           0 DoJE=F BraDBF=F KetDBF=F FulRan=T
         wScrn=  0.000000 ICntrl=      3507 IOpCl=  0 I1Cent=           0 NGrid=           0
         NMat0=    1 NMatS0=      1 NMatT0=    0 NMatD0=    1 NMtDS0=    0 NMtDT0=    0
 Symmetry not used in FoFCou.
 End of G2Drv F.D. properties file   721 does not exist.
 End of G2Drv F.D. properties file   722 does not exist.
 End of G2Drv F.D. properties file   788 does not exist.
 Leave Link 1110 at Fri Mar  6 17:32:15 2026, MaxMem=  2415919104 cpu:             178.0 elap:              15.2
 (Enter /prod/precompiled/gaussian/16c2/g16/l1002.exe)
 Minotr:  Closed shell wavefunction.
          IDoAtm=111111111111111111111111
          Direct CPHF calculation.
          Differentiating once with respect to electric field.
                with respect to dipole field.
          Differentiating once with respect to nuclear coordinates.
          Requested convergence is 1.0D-08 RMS, and 1.0D-07 maximum.
          Secondary convergence is 1.0D-12 RMS, and 1.0D-12 maximum.
          NewPWx=T KeepS1=F KeepF1=F KeepIn=T MapXYZ=F SortEE=F KeepMc=T.
         7209 words used for storage of precomputed grid.
 Keep R1 ints in memory in canonical form, NReq=1402150899.
 FoFCou: FMM=F IPFlag=           0 FMFlag=           0 FMFlg1=           0
         NFxFlg=           0 DoJE=F BraDBF=F KetDBF=F FulRan=T
         wScrn=  0.000000 ICntrl=       600 IOpCl=  0 I1Cent=           0 NGrid=           0
         NMat0=    1 NMatS0=  37128 NMatT0=    0 NMatD0=    1 NMtDS0=    0 NMtDT0=    0
 Symmetry not used in FoFCou.
 Two-electron integral symmetry not used.
          MDV=    2415919104 using IRadAn=       1.
          Solving linear equations simultaneously, MaxMat=       0.
          There are    75 degrees of freedom in the 1st order CPHF.  IDoFFX=6 NUNeed=     3.
     72 vectors produced by pass  0 Test12= 1.77D-14 1.33D-09 XBig12= 1.16D+02 5.06D+00.
 AX will form    72 AO Fock derivatives at one time.
     72 vectors produced by pass  1 Test12= 1.77D-14 1.33D-09 XBig12= 1.18D+01 9.18D-01.
     72 vectors produced by pass  2 Test12= 1.77D-14 1.33D-09 XBig12= 6.35D-01 1.45D-01.
     72 vectors produced by pass  3 Test12= 1.77D-14 1.33D-09 XBig12= 1.10D-02 1.81D-02.
     72 vectors produced by pass  4 Test12= 1.77D-14 1.33D-09 XBig12= 1.46D-04 1.34D-03.
     72 vectors produced by pass  5 Test12= 1.77D-14 1.33D-09 XBig12= 9.89D-07 1.07D-04.
     69 vectors produced by pass  6 Test12= 1.77D-14 1.33D-09 XBig12= 5.90D-09 8.92D-06.
     33 vectors produced by pass  7 Test12= 1.77D-14 1.33D-09 XBig12= 2.56D-11 5.19D-07.
      3 vectors produced by pass  8 Test12= 1.77D-14 1.33D-09 XBig12= 1.15D-13 3.63D-08.
      1 vectors produced by pass  9 Test12= 1.77D-14 1.33D-09 XBig12= 5.22D-16 2.34D-09.
 InvSVY:  IOpt=1 It=  1 EMax= 1.24D-14
 Solved reduced A of dimension   538 with    75 vectors.
 FullF1:  Do perturbations      1 to       3.
 Isotropic polarizability for W=    0.000000      164.96 Bohr**3.
 End of Minotr F.D. properties file   721 does not exist.
 End of Minotr F.D. properties file   722 does not exist.
 End of Minotr F.D. properties file   788 does not exist.
 Leave Link 1002 at Fri Mar  6 17:32:38 2026, MaxMem=  2415919104 cpu:             243.4 elap:              22.6
 (Enter /prod/precompiled/gaussian/16c2/g16/l601.exe)
 Copying SCF densities to generalized density rwf, IOpCl= 0 IROHF=0.

 **********************************************************************

            Population analysis using the SCF Density.

 **********************************************************************

 Alpha  occ. eigenvalues -- -101.68024-101.68024 -14.50365 -14.50325 -10.37198
 Alpha  occ. eigenvalues --  -10.37196 -10.34909 -10.34908 -10.32200 -10.32200
 Alpha  occ. eigenvalues --  -10.32131 -10.32130 -10.31990 -10.31989 -10.31798
 Alpha  occ. eigenvalues --  -10.31797  -9.58797  -9.58797  -7.34201  -7.34201
 Alpha  occ. eigenvalues --   -7.33209  -7.33209  -7.33158  -7.33158  -1.15257
 Alpha  occ. eigenvalues --   -1.00513  -0.99129  -0.94569  -0.94076  -0.90826
 Alpha  occ. eigenvalues --   -0.85721  -0.83892  -0.83272  -0.77986  -0.71614
 Alpha  occ. eigenvalues --   -0.71428  -0.71048  -0.66810  -0.63041  -0.60126
 Alpha  occ. eigenvalues --   -0.58721  -0.58599  -0.56040  -0.55430  -0.53964
 Alpha  occ. eigenvalues --   -0.53653  -0.52458  -0.52357  -0.49826  -0.49286
 Alpha  occ. eigenvalues --   -0.47480  -0.46689  -0.46490  -0.45245  -0.44219
 Alpha  occ. eigenvalues --   -0.42539  -0.42323  -0.40317  -0.39187  -0.36768
 Alpha  occ. eigenvalues --   -0.33829  -0.33300  -0.31884  -0.30632
 Alpha virt. eigenvalues --   -0.01812   0.04361   0.04420   0.05415   0.08742
 Alpha virt. eigenvalues --    0.10894   0.11815   0.15837   0.16256   0.18154
 Alpha virt. eigenvalues --    0.18649   0.21257   0.21848   0.22165   0.22236
 Alpha virt. eigenvalues --    0.22568   0.22877   0.28993   0.30169   0.34063
 Alpha virt. eigenvalues --    0.34812   0.34875   0.35327   0.36053   0.36070
 Alpha virt. eigenvalues --    0.37099   0.39350   0.40654   0.43039   0.45370
 Alpha virt. eigenvalues --    0.46462   0.46612   0.48045   0.48144   0.50561
 Alpha virt. eigenvalues --    0.51091   0.52108   0.53625   0.53812   0.54043
 Alpha virt. eigenvalues --    0.54652   0.54724   0.56629   0.56686   0.59727
 Alpha virt. eigenvalues --    0.60005   0.60634   0.60867   0.61167   0.61808
 Alpha virt. eigenvalues --    0.63531   0.64105   0.66880   0.67135   0.67644
 Alpha virt. eigenvalues --    0.68168   0.68812   0.69684   0.71143   0.72006
 Alpha virt. eigenvalues --    0.73417   0.73918   0.74627   0.74946   0.75448
 Alpha virt. eigenvalues --    0.75538   0.77723   0.78746   0.78862   0.79550
 Alpha virt. eigenvalues --    0.79702   0.80331   0.81405   0.82433   0.83041
 Alpha virt. eigenvalues --    0.84289   0.86492   0.86536   0.87363   0.87475
 Alpha virt. eigenvalues --    0.88650   0.88942   0.89708   0.90471   0.91816
 Alpha virt. eigenvalues --    0.92292   0.93476   0.94598   0.97293   0.98050
 Alpha virt. eigenvalues --    0.99477   1.02522   1.03526   1.05787   1.06789
 Alpha virt. eigenvalues --    1.08517   1.09416   1.13610   1.15547   1.16305
 Alpha virt. eigenvalues --    1.19142   1.22776   1.24062   1.25998   1.27174
 Alpha virt. eigenvalues --    1.27834   1.31534   1.31892   1.33304   1.33325
 Alpha virt. eigenvalues --    1.33862   1.34069   1.35847   1.36086   1.37535
 Alpha virt. eigenvalues --    1.37830   1.39402   1.44119   1.46882   1.49733
 Alpha virt. eigenvalues --    1.54914   1.57366   1.58437   1.59177   1.62241
 Alpha virt. eigenvalues --    1.68106   1.73519   1.74014   1.77248   1.77446
 Alpha virt. eigenvalues --    1.78181   1.78326   1.79106   1.80309   1.83367
 Alpha virt. eigenvalues --    1.83915   1.83919   1.84258   1.85169   1.85661
 Alpha virt. eigenvalues --    1.85841   1.89768   1.91074   1.91091   1.94553
 Alpha virt. eigenvalues --    1.97458   1.97968   1.99929   2.01989   2.02169
 Alpha virt. eigenvalues --    2.02305   2.04056   2.05571   2.07474   2.09263
 Alpha virt. eigenvalues --    2.13505   2.14349   2.16514   2.18112   2.21373
 Alpha virt. eigenvalues --    2.21778   2.21867   2.23575   2.27054   2.31029
 Alpha virt. eigenvalues --    2.31052   2.31987   2.33410   2.35296   2.35326
 Alpha virt. eigenvalues --    2.36169   2.38714   2.39319   2.39556   2.43820
 Alpha virt. eigenvalues --    2.46156   2.49271   2.54329   2.56664   2.59401
 Alpha virt. eigenvalues --    2.64938   2.66662   2.68077   2.70022   2.70714
 Alpha virt. eigenvalues --    2.70908   2.71360   2.74920   2.79728   2.79793
 Alpha virt. eigenvalues --    2.85518   2.86498   2.89143   2.89807   2.93523
 Alpha virt. eigenvalues --    2.97549   2.98187   2.99300   3.09231   3.12962
 Alpha virt. eigenvalues --    3.15134   3.16130   3.24485   3.24800   3.46897
 Alpha virt. eigenvalues --    3.49473   3.67510   3.69568
          Condensed to atoms (all electrons):
               1          2          3          4          5          6
     1  C    5.098740   0.226702  -0.057497   0.083595  -0.138172   0.093315
     2  C    0.226702   5.259856   0.258908   0.342464   0.083454  -0.148319
     3  Cl  -0.057497   0.258908  16.918149  -0.056729   0.002956   0.000691
     4  C    0.083595   0.342464  -0.056729   4.978705   0.311878   0.075216
     5  C   -0.138172   0.083454   0.002956   0.311878   5.053368   0.279819
     6  C    0.093315  -0.148319   0.000691   0.075216   0.279819   5.088102
     7  C    0.366595   0.040177   0.001064  -0.104324   0.071945   0.290137
     8  N    0.373949  -0.064728  -0.002921   0.004592  -0.000246   0.006847
     9  N   -0.072939  -0.009164  -0.000375  -0.000990   0.000081  -0.000339
    10  C    0.009141   0.000144  -0.001376   0.000023  -0.000000   0.000006
    11  C    0.000143   0.000064  -0.000009  -0.000002   0.000000   0.000000
    12  Cl  -0.001368  -0.000009   0.000000  -0.000001   0.000001   0.000024
    13  C    0.000023  -0.000002  -0.000001   0.000000   0.000000   0.000000
    14  C   -0.000000   0.000000   0.000001   0.000000  -0.000000   0.000000
    15  C    0.000006   0.000000   0.000024   0.000000   0.000000  -0.000000
    16  C   -0.000189   0.000018   0.000307   0.000000  -0.000000   0.000000
    17  H    0.016103  -0.062606   0.002337   0.437991  -0.057861   0.012477
    18  H   -0.001712   0.013722  -0.000122  -0.060264   0.445171  -0.064461
    19  H    0.013203  -0.001456   0.000007   0.012147  -0.064885   0.448864
    20  H   -0.062713   0.019628  -0.000064  -0.002983   0.013306  -0.068466
    21  H   -0.000000   0.000000  -0.000000  -0.000000  -0.000000  -0.000000
    22  H    0.000000  -0.000000  -0.000000  -0.000000   0.000000   0.000000
    23  H   -0.000000   0.000000  -0.000001  -0.000000   0.000000   0.000000
    24  H   -0.000221  -0.000043   0.004513  -0.000001  -0.000000  -0.000000
               7          8          9         10         11         12
     1  C    0.366595   0.373949  -0.072939   0.009141   0.000143  -0.001368
     2  C    0.040177  -0.064728  -0.009164   0.000144   0.000064  -0.000009
     3  Cl   0.001064  -0.002921  -0.000375  -0.001376  -0.000009   0.000000
     4  C   -0.104324   0.004592  -0.000990   0.000023  -0.000002  -0.000001
     5  C    0.071945  -0.000246   0.000081  -0.000000   0.000000   0.000001
     6  C    0.290137   0.006847  -0.000339   0.000006   0.000000   0.000024
     7  C    5.023644  -0.074665   0.002750  -0.000190   0.000018   0.000308
     8  N   -0.074665   6.621937   0.316081  -0.072908  -0.009141  -0.000353
     9  N    0.002750   0.316081   6.622148   0.373851  -0.064702  -0.002926
    10  C   -0.000190  -0.072908   0.373851   5.098608   0.226876  -0.057524
    11  C    0.000018  -0.009141  -0.064702   0.226876   5.259614   0.258911
    12  Cl   0.000308  -0.000353  -0.002926  -0.057524   0.258911  16.918186
    13  C    0.000000  -0.000989   0.004592   0.083555   0.342488  -0.056719
    14  C   -0.000000   0.000081  -0.000246  -0.138167   0.083446   0.002955
    15  C    0.000000  -0.000338   0.006846   0.093298  -0.148309   0.000691
    16  C   -0.000029   0.002738  -0.074648   0.366590   0.040223   0.001063
    17  H   -0.001978  -0.000086   0.000025  -0.000000   0.000000  -0.000000
    18  H    0.012397   0.000007   0.000000   0.000000  -0.000000  -0.000000
    19  H   -0.062597  -0.000108   0.000003  -0.000000   0.000000  -0.000001
    20  H    0.443940  -0.003360   0.000243  -0.000221  -0.000042   0.004498
    21  H   -0.000000   0.000025  -0.000086   0.016105  -0.062608   0.002334
    22  H    0.000000   0.000000   0.000007  -0.001712   0.013722  -0.000122
    23  H   -0.000000   0.000003  -0.000108   0.013203  -0.001456   0.000007
    24  H    0.000002   0.000243  -0.003374  -0.062718   0.019619  -0.000064
              13         14         15         16         17         18
     1  C    0.000023  -0.000000   0.000006  -0.000189   0.016103  -0.001712
     2  C   -0.000002   0.000000   0.000000   0.000018  -0.062606   0.013722
     3  Cl  -0.000001   0.000001   0.000024   0.000307   0.002337  -0.000122
     4  C    0.000000   0.000000   0.000000   0.000000   0.437991  -0.060264
     5  C    0.000000  -0.000000   0.000000  -0.000000  -0.057861   0.445171
     6  C    0.000000   0.000000  -0.000000   0.000000   0.012477  -0.064461
     7  C    0.000000  -0.000000   0.000000  -0.000029  -0.001978   0.012397
     8  N   -0.000989   0.000081  -0.000338   0.002738  -0.000086   0.000007
     9  N    0.004592  -0.000246   0.006846  -0.074648   0.000025   0.000000
    10  C    0.083555  -0.138167   0.093298   0.366590  -0.000000   0.000000
    11  C    0.342488   0.083446  -0.148309   0.040223   0.000000  -0.000000
    12  Cl  -0.056719   0.002955   0.000691   0.001063  -0.000000  -0.000000
    13  C    4.978695   0.311906   0.075208  -0.104320  -0.000000  -0.000000
    14  C    0.311906   5.053366   0.279840   0.071929  -0.000000   0.000000
    15  C    0.075208   0.279840   5.088044   0.290188  -0.000000   0.000000
    16  C   -0.104320   0.071929   0.290188   5.023580  -0.000000   0.000000
    17  H   -0.000000  -0.000000  -0.000000  -0.000000   0.640008  -0.011389
    18  H   -0.000000   0.000000   0.000000   0.000000  -0.011389   0.643629
    19  H   -0.000000   0.000000   0.000000  -0.000000  -0.000192  -0.010554
    20  H   -0.000001  -0.000000  -0.000000   0.000002   0.000018  -0.000198
    21  H    0.437994  -0.057863   0.012475  -0.001978   0.000000  -0.000000
    22  H   -0.060264   0.445169  -0.064460   0.012397  -0.000000  -0.000000
    23  H    0.012145  -0.064883   0.448855  -0.062592   0.000000  -0.000000
    24  H   -0.002982   0.013305  -0.068451   0.443943  -0.000000   0.000000
              19         20         21         22         23         24
     1  C    0.013203  -0.062713  -0.000000   0.000000  -0.000000  -0.000221
     2  C   -0.001456   0.019628   0.000000  -0.000000   0.000000  -0.000043
     3  Cl   0.000007  -0.000064  -0.000000  -0.000000  -0.000001   0.004513
     4  C    0.012147  -0.002983  -0.000000  -0.000000  -0.000000  -0.000001
     5  C   -0.064885   0.013306  -0.000000   0.000000   0.000000  -0.000000
     6  C    0.448864  -0.068466  -0.000000   0.000000   0.000000  -0.000000
     7  C   -0.062597   0.443940  -0.000000   0.000000  -0.000000   0.000002
     8  N   -0.000108  -0.003360   0.000025   0.000000   0.000003   0.000243
     9  N    0.000003   0.000243  -0.000086   0.000007  -0.000108  -0.003374
    10  C   -0.000000  -0.000221   0.016105  -0.001712   0.013203  -0.062718
    11  C    0.000000  -0.000042  -0.062608   0.013722  -0.001456   0.019619
    12  Cl  -0.000001   0.004498   0.002334  -0.000122   0.000007  -0.000064
    13  C   -0.000000  -0.000001   0.437994  -0.060264   0.012145  -0.002982
    14  C    0.000000  -0.000000  -0.057863   0.445169  -0.064883   0.013305
    15  C    0.000000  -0.000000   0.012475  -0.064460   0.448855  -0.068451
    16  C   -0.000000   0.000002  -0.001978   0.012397  -0.062592   0.443943
    17  H   -0.000192   0.000018   0.000000  -0.000000   0.000000  -0.000000
    18  H   -0.010554  -0.000198  -0.000000  -0.000000  -0.000000   0.000000
    19  H    0.643924  -0.010509   0.000000  -0.000000   0.000000  -0.000000
    20  H   -0.010509   0.640673  -0.000000   0.000000  -0.000000   0.000001
    21  H    0.000000  -0.000000   0.640010  -0.011389  -0.000192   0.000018
    22  H   -0.000000   0.000000  -0.011389   0.643639  -0.010553  -0.000198
    23  H    0.000000  -0.000000  -0.000192  -0.010553   0.643924  -0.010510
    24  H   -0.000000   0.000001   0.000018  -0.000198  -0.010510   0.640684
 Mulliken charges:
               1
     1  C    0.053297
     2  C    0.041191
     3  Cl  -0.069860
     4  C   -0.021318
     5  C   -0.000815
     6  C   -0.013914
     7  C   -0.009193
     8  N   -0.096660
     9  N   -0.096730
    10  C    0.053415
    11  C    0.041146
    12  Cl  -0.069891
    13  C   -0.021329
    14  C   -0.000839
    15  C   -0.013916
    16  C   -0.009222
    17  H    0.025153
    18  H    0.033774
    19  H    0.032155
    20  H    0.026247
    21  H    0.025156
    22  H    0.033764
    23  H    0.032158
    24  H    0.026232
 Sum of Mulliken charges =  -0.00000
 Mulliken charges with hydrogens summed into heavy atoms:
               1
     1  C    0.053297
     2  C    0.041191
     3  Cl  -0.069860
     4  C    0.003836
     5  C    0.032959
     6  C    0.018241
     7  C    0.017054
     8  N   -0.096660
     9  N   -0.096730
    10  C    0.053415
    11  C    0.041146
    12  Cl  -0.069891
    13  C    0.003827
    14  C    0.032925
    15  C    0.018242
    16  C    0.017009
 APT charges:
               1
     1  C    0.038115
     2  C    0.299970
     3  Cl  -0.253276
     4  C   -0.128520
     5  C   -0.017766
     6  C   -0.059121
     7  C   -0.048326
     8  N   -0.051195
     9  N   -0.051950
    10  C    0.038544
    11  C    0.299906
    12  Cl  -0.253280
    13  C   -0.128407
    14  C   -0.017907
    15  C   -0.059026
    16  C   -0.048442
    17  H    0.059345
    18  H    0.041255
    19  H    0.040312
    20  H    0.079442
    21  H    0.059336
    22  H    0.041247
    23  H    0.040307
    24  H    0.079437
 Sum of APT charges =  -0.00000
 APT charges with hydrogens summed into heavy atoms:
               1
     1  C    0.038115
     2  C    0.299970
     3  Cl  -0.253276
     4  C   -0.069176
     5  C    0.023489
     6  C   -0.018809
     7  C    0.031116
     8  N   -0.051195
     9  N   -0.051950
    10  C    0.038544
    11  C    0.299906
    12  Cl  -0.253280
    13  C   -0.069071
    14  C    0.023340
    15  C   -0.018719
    16  C    0.030995
 Electronic spatial extent (au):  <R**2>=           6476.3623
 Charge=             -0.0000 electrons
 Dipole moment (field-independent basis, Debye):
    X=              0.0006    Y=             -0.0010    Z=              0.0003  Tot=              0.0012
 Quadrupole moment (field-independent basis, Debye-Ang):
   XX=            -90.2432   YY=            -90.5546   ZZ=           -108.2895
   XY=            -12.1285   XZ=             -4.3293   YZ=             -0.5917
 Traceless Quadrupole moment (field-independent basis, Debye-Ang):
   XX=              6.1192   YY=              5.8078   ZZ=            -11.9271
   XY=            -12.1285   XZ=             -4.3293   YZ=             -0.5917
 Octapole moment (field-independent basis, Debye-Ang**2):
  XXX=            342.4964  YYY=           -333.6054  ZZZ=             36.4649  XYY=             84.7586
  XXY=            -80.1211  XXZ=             21.0959  XZZ=            137.9435  YZZ=           -132.8266
  YYZ=              8.6792  XYZ=             -3.1989
 Hexadecapole moment (field-independent basis, Debye-Ang**3):
 XXXX=          -2985.8212 YYYY=          -4458.1223 ZZZZ=           -456.3657 XXXY=           1099.7401
 XXXZ=            -32.6847 YYYX=           1017.0040 YYYZ=            310.5405 ZZZX=             73.6483
 ZZZY=            384.9228 XXYY=          -1130.5691 XXZZ=           -660.4087 YYZZ=           -951.9531
 XXYZ=            161.0278 YYXZ=             25.5531 ZZXY=            488.5835
 N-N= 1.195858648404D+03 E-N=-5.902622402390D+03  KE= 1.483286593400D+03
  Exact polarizability:     202.797     -50.293     207.292     -32.900     -20.793      84.788
 Approx polarizability:     231.561     -25.462     209.210     -39.676     -19.915     109.760
 No NMR shielding tensors so no spin-rotation constants.
 Leave Link  601 at Fri Mar  6 17:32:38 2026, MaxMem=  2415919104 cpu:               1.0 elap:               0.3
 (Enter /prod/precompiled/gaussian/16c2/g16/l701.exe)
 ... and contract with generalized density number  0.
 Compute integral second derivatives.
 R6Disp: Adding Grimme-D2 dispersion energy 2nd derivatives to the Hessian.
   1 Symmetry operations used in ECPInt.
 ECPInt:  NShTT=    7750 NPrTT=   30142 LenC2=    6990 LenP2D=   18945.
 LDataN:  DoStor=T MaxTD1= 6 Len=  172
 Leave Link  701 at Fri Mar  6 17:32:38 2026, MaxMem=  2415919104 cpu:               1.0 elap:               0.3
 (Enter /prod/precompiled/gaussian/16c2/g16/l702.exe)
 L702 exits ... SP integral derivatives will be done elsewhere.
 Leave Link  702 at Fri Mar  6 17:32:38 2026, MaxMem=  2415919104 cpu:               0.1 elap:               0.1
 (Enter /prod/precompiled/gaussian/16c2/g16/l703.exe)
 Integral derivatives from FoFJK, PRISM(SPDF).
 Compute integral second derivatives, UseDBF=F ICtDFT=           0.
 Calling FoFJK, ICntrl=    100127 FMM=F ISym2X=0 I1Cent= 0 IOpClX= 0 NMat=1 NMatS=1 NMatT=0.
 FoFJK:  IHMeth= 1 ICntrl=  100127 DoSepK=T KAlg= 0 I1Cent=           0 FoldK=F
 IRaf=         1 NMat=       1 IRICut=       1 DoRegI=T DoRafI=F ISym2E= 0 IDoP0=0 IntGTp=1.
 FoFCou: FMM=F IPFlag=           0 FMFlag=      100000 FMFlg1=         800
         NFxFlg=           0 DoJE=F BraDBF=F KetDBF=F FulRan=T
         wScrn=  0.000000 ICntrl=    100527 IOpCl=  0 I1Cent=           0 NGrid=           0
         NMat0=    1 NMatS0=      1 NMatT0=    0 NMatD0=    1 NMtDS0=    0 NMtDT0=    0
 Symmetry not used in FoFCou.
 Leave Link  703 at Fri Mar  6 17:33:17 2026, MaxMem=  2415919104 cpu:             356.4 elap:              38.9
 (Enter /prod/precompiled/gaussian/16c2/g16/l716.exe)
 Dipole        = 2.23868768D-04-3.91088762D-04 1.34858740D-04
 Polarizability= 2.02796962D+02-5.02931719D+01 2.07291929D+02
                -3.28999486D+01-2.07933990D+01 8.47878090D+01
 Full mass-weighted force constant matrix:
 Low frequencies ---   -8.3367   -0.0027   -0.0021   -0.0010    0.6382    5.9144
 Low frequencies ---   17.3077   50.8394   66.5636
 Diagonal vibrational polarizability:
       36.1459825      10.4151856      57.8972304
 Harmonic frequencies (cm**-1), IR intensities (KM/Mole), Raman scattering
 activities (A**4/AMU), depolarization ratios for plane and unpolarized
 incident light, reduced masses (AMU), force constants (mDyne/A),
 and normal coordinates:
                           1         2         3         4         5
                           A         A         A         A         A
       Frequencies ---    17.3076   50.8394   66.5636   90.8446  137.3948
    Reduced masses ---     8.6075    6.5022    5.4644    6.1597   18.8640
   Force constants ---     0.0015    0.0099    0.0143    0.0300    0.2098
    IR Intensities ---     0.7774    1.0660    1.1418    0.0000    0.0000
 Coord Atom Element:
   1     1     6          0.00047   0.03458   0.08766  -0.00607   0.07918
   2     1     6         -0.02493  -0.02885   0.01665  -0.05404   0.13300
   3     1     6         -0.07304  -0.09590   0.08897  -0.14802  -0.11344
   1     2     6          0.01211  -0.01324  -0.02009   0.01994   0.01245
   2     2     6          0.01653   0.02519   0.02075  -0.02668   0.19130
   3     2     6          0.04868  -0.00444  -0.02371  -0.02297  -0.07720
   1     3    17          0.07728  -0.05220  -0.02494  -0.00203  -0.04423
   2     3    17          0.11317   0.11977   0.08405  -0.06139   0.41611
   3     3    17          0.21102  -0.07493  -0.02211  -0.08580  -0.18161
   1     4     6         -0.02673  -0.03277  -0.12598   0.06743  -0.03337
   2     4     6         -0.00815   0.00531  -0.04211  -0.00622   0.16551
   3     4     6          0.04019   0.15751  -0.13781   0.14721   0.02206
   1     5     6         -0.07595  -0.00585  -0.11777   0.07261  -0.02460
   2     5     6         -0.07166  -0.07166  -0.10591  -0.03995   0.11254
   3     5     6         -0.08854   0.22345  -0.12189   0.16346   0.03188
   1     6     6         -0.08618   0.03628  -0.00135   0.02943   0.01756
   2     6     6         -0.11064  -0.12801  -0.10923  -0.08654   0.06199
   3     6     6         -0.20949   0.12039   0.01987  -0.02069  -0.06182
   1     7     6         -0.04529   0.05591   0.09764  -0.00749   0.06722
   2     7     6         -0.08433  -0.10461  -0.05038  -0.10222   0.09973
   3     7     6         -0.20186  -0.03801   0.11985  -0.17166  -0.13325
   1     8     7          0.01779   0.06163   0.14673   0.06379   0.01035
   2     8     7         -0.01562  -0.01404   0.05168  -0.01808   0.06603
   3     8     7         -0.07145  -0.16989   0.11774  -0.22426  -0.03354
   1     9     7          0.01772   0.06171   0.14695  -0.06333  -0.00975
   2     9     7         -0.01565  -0.01400   0.05177   0.01838  -0.06552
   3     9     7         -0.07121  -0.17018   0.11699   0.22455   0.03314
   1    10     6          0.00043   0.03461   0.08775   0.00634  -0.07896
   2    10     6         -0.02496  -0.02882   0.01668   0.05422  -0.13279
   3    10     6         -0.07293  -0.09606   0.08860   0.14824   0.11327
   1    11     6          0.01216  -0.01327  -0.02006  -0.01999  -0.01253
   2    11     6          0.01656   0.02535   0.02071   0.02673  -0.19098
   3    11     6          0.04862  -0.00455  -0.02380   0.02294   0.07723
   1    12    17          0.07746  -0.05228  -0.02495   0.00192   0.04408
   2    12    17          0.11335   0.12006   0.08401   0.06150  -0.41609
   3    12    17          0.21099  -0.07506  -0.02234   0.08557   0.18151
   1    13     6         -0.02669  -0.03282  -0.12595  -0.06781   0.03307
   2    13     6         -0.00813   0.00555  -0.04227   0.00596  -0.16540
   3    13     6          0.03997   0.15744  -0.13751  -0.14742  -0.02167
   1    14     6         -0.07598  -0.00584  -0.11772  -0.07296   0.02431
   2    14     6         -0.07170  -0.07151  -0.10613   0.03954  -0.11289
   3    14     6         -0.08869   0.22339  -0.12157  -0.16357  -0.03138
   1    15     6         -0.08630   0.03636  -0.00125  -0.02940  -0.01758
   2    15     6         -0.11073  -0.12803  -0.10936   0.08634  -0.06250
   3    15     6         -0.20938   0.12031   0.01978   0.02086   0.06191
   1    16     6         -0.04541   0.05599   0.09775   0.00781  -0.06696
   2    16     6         -0.08442  -0.10469  -0.05041   0.10228  -0.10002
   3    16     6         -0.20167  -0.03817   0.11945   0.17196   0.13306
   1    17     1         -0.01655  -0.06903  -0.21306   0.08992  -0.06118
   2    17     1          0.02458   0.05219  -0.04061   0.03023   0.19744
   3    17     1          0.13526   0.23320  -0.23773   0.26654   0.06953
   1    18     1         -0.10470  -0.01885  -0.20231   0.10408  -0.04619
   2    18     1         -0.08939  -0.08556  -0.15481  -0.02676   0.09594
   3    18     1         -0.09439   0.35415  -0.21614   0.30871   0.09942
   1    19     1         -0.12325   0.05628   0.00799   0.02682   0.01661
   2    19     1         -0.16043  -0.18830  -0.16014  -0.10697  -0.01127
   3    19     1         -0.31124   0.16840   0.04055  -0.02900  -0.07033
   1    20     1         -0.04710   0.09466   0.18132  -0.03128   0.09686
   2    20     1         -0.11411  -0.14384  -0.05743  -0.12863   0.06868
   3    20     1         -0.29623  -0.10916   0.20719  -0.28461  -0.18862
   1    21     1         -0.01645  -0.06913  -0.21304  -0.09057   0.06061
   2    21     1          0.02463   0.05255  -0.04083  -0.03062  -0.19716
   3    21     1          0.13485   0.23315  -0.23714  -0.26697  -0.06892
   1    22     1         -0.10472  -0.01886  -0.20228  -0.10470   0.04567
   2    22     1         -0.08944  -0.08534  -0.15516   0.02608  -0.09648
   3    22     1         -0.09466   0.35413  -0.21552  -0.30898  -0.09859
   1    23     1         -0.12341   0.05641   0.00809  -0.02676  -0.01663
   2    23     1         -0.16056  -0.18840  -0.16030   0.10669   0.01046
   3    23     1         -0.31102   0.16833   0.04043   0.02923   0.07036
   1    24     1         -0.04728   0.09477   0.18141   0.03185  -0.09631
   2    24     1         -0.11423  -0.14401  -0.05739   0.12877  -0.06911
   3    24     1         -0.29587  -0.10935   0.20651   0.28503   0.18823
                           6         7         8         9        10
                           A         A         A         A         A
       Frequencies ---   159.6067  173.2089  243.5319  275.2484  292.6626
    Reduced masses ---     6.0355    5.9242    9.2488    5.8865   10.3926
   Force constants ---     0.0906    0.1047    0.3232    0.2628    0.5245
    IR Intensities ---     0.0000    2.1243    0.0000    0.0000    0.3016
 Coord Atom Element:
   1     1     6         -0.03258  -0.05080  -0.00357  -0.10919  -0.04435
   2     1     6         -0.00669  -0.02595  -0.11731  -0.02888  -0.15306
   3     1     6          0.07857  -0.11052  -0.10034  -0.13633   0.06950
   1     2     6          0.01571  -0.05202   0.05984  -0.13863   0.05375
   2     2     6         -0.00457  -0.03489  -0.13990  -0.01858  -0.18170
   3     2     6          0.11361  -0.13325  -0.13104  -0.14791   0.03676
   1     3    17         -0.06676   0.05243   0.12290  -0.07041   0.00568
   2     3    17         -0.03736   0.02488   0.08950  -0.01614   0.22932
   3     3    17         -0.06086   0.10861  -0.01794   0.08179  -0.07168
   1     4     6          0.07375  -0.06307   0.04974  -0.05726   0.11415
   2     4     6          0.03010  -0.03903  -0.15945   0.03618  -0.15036
   3     4     6          0.16909  -0.17834  -0.05877  -0.10575   0.00213
   1     5     6          0.01873   0.00245   0.10651   0.02760   0.10388
   2     5     6          0.05413   0.00545  -0.13278   0.14655   0.00087
   3     5     6          0.03086  -0.01237   0.09473   0.10270  -0.06650
   1     6     6         -0.09730   0.07180   0.06468  -0.00270   0.00737
   2     6     6          0.03667   0.04865  -0.11031   0.14496   0.06613
   3     6     6         -0.16838   0.19539   0.08972   0.06135  -0.02553
   1     7     6         -0.10434   0.02222   0.01313  -0.12161  -0.06463
   2     7     6          0.02610   0.02295  -0.11842   0.06396   0.01316
   3     7     6         -0.10271   0.09601  -0.06014  -0.13247   0.05846
   1     8     7         -0.07341  -0.08043  -0.08332  -0.01684  -0.17593
   2     8     7         -0.02443  -0.04904  -0.10641  -0.02826  -0.22971
   3     8     7          0.24599  -0.17316   0.29855   0.03230   0.12334
   1     9     7          0.07324  -0.08036   0.08299   0.01671  -0.17614
   2     9     7          0.02422  -0.04909   0.10606   0.02821  -0.22987
   3     9     7         -0.24568  -0.17338  -0.29850  -0.03243   0.12406
   1    10     6          0.03254  -0.05082   0.00352   0.10923  -0.04449
   2    10     6          0.00660  -0.02605   0.11722   0.02899  -0.15332
   3    10     6         -0.07837  -0.11052   0.10031   0.13629   0.06977
   1    11     6         -0.01569  -0.05213  -0.05975   0.13875   0.05387
   2    11     6          0.00442  -0.03503   0.13980   0.01870  -0.18210
   3    11     6         -0.11341  -0.13333   0.13097   0.14794   0.03695
   1    12    17          0.06675   0.05256  -0.12280   0.07038   0.00570
   2    12    17          0.03740   0.02488  -0.08932   0.01606   0.22906
   3    12    17          0.06067   0.10874   0.01808  -0.08183  -0.07175
   1    13     6         -0.07363  -0.06329  -0.04953   0.05739   0.11437
   2    13     6         -0.03026  -0.03927   0.15937  -0.03610  -0.15072
   3    13     6         -0.16873  -0.17850   0.05877   0.10583   0.00220
   1    14     6         -0.01865   0.00239  -0.10645  -0.02765   0.10403
   2    14     6         -0.05409   0.00531   0.13274  -0.14668   0.00068
   3    14     6         -0.03087  -0.01243  -0.09482  -0.10266  -0.06654
   1    15     6          0.09733   0.07207  -0.06480   0.00263   0.00724
   2    15     6         -0.03641   0.04876   0.11036  -0.14500   0.06609
   3    15     6          0.16795   0.19554  -0.08993  -0.06129  -0.02553
   1    16     6          0.10435   0.02247  -0.01323   0.12168  -0.06488
   2    16     6         -0.02591   0.02298   0.11853  -0.06378   0.01307
   3    16     6          0.10260   0.09620   0.06009   0.13255   0.05856
   1    17     1          0.14333  -0.08753   0.02776   0.00613   0.20610
   2    17     1          0.03162  -0.05972  -0.14345   0.00494  -0.20440
   3    17     1          0.25573  -0.25987  -0.04395  -0.10918  -0.02203
   1    18     1          0.05874   0.01446   0.17484   0.12660   0.18465
   2    18     1          0.07907   0.01237  -0.09531   0.20058   0.05418
   3    18     1          0.04060   0.00097   0.21665   0.29041  -0.14769
   1    19     1         -0.16219   0.14869   0.10820   0.05173  -0.00731
   2    19     1          0.03841   0.09474  -0.06860   0.19673   0.15266
   3    19     1         -0.33946   0.40192   0.20596   0.21030  -0.05770
   1    20     1         -0.16289   0.04562   0.06448  -0.19910  -0.16122
   2    20     1          0.02318   0.04546  -0.13558   0.09794   0.06796
   3    20     1         -0.18848   0.19720  -0.04807  -0.12576   0.10269
   1    21     1         -0.14311  -0.08792  -0.02735  -0.00594   0.20646
   2    21     1         -0.03189  -0.06004   0.14332  -0.00490  -0.20482
   3    21     1         -0.25514  -0.26011   0.04407   0.10928  -0.02198
   1    22     1         -0.05862   0.01430  -0.17469  -0.12676   0.18494
   2    22     1         -0.07903   0.01218   0.09522  -0.20093   0.05407
   3    22     1         -0.04063   0.00085  -0.21665  -0.29040  -0.14783
   1    23     1          0.16219   0.14917  -0.10843  -0.05193  -0.00748
   2    23     1         -0.03797   0.09507   0.06864  -0.19690   0.15281
   3    23     1          0.33858   0.40217  -0.20618  -0.21023  -0.05775
   1    24     1          0.16283   0.04603  -0.06471   0.19911  -0.16154
   2    24     1         -0.02286   0.04559   0.13578  -0.09772   0.06792
   3    24     1          0.18830   0.19752   0.04824   0.12584   0.10286
                          11        12        13        14        15
                           A         A         A         A         A
       Frequencies ---   339.4359  368.3468  402.2736  464.2566  472.8375
    Reduced masses ---     4.9508    5.8468   11.7954    3.4020    8.4157
   Force constants ---     0.3361    0.4674    1.1246    0.4320    1.1086
    IR Intensities ---     4.0350    0.0000    3.5328    0.0000    0.0000
 Coord Atom Element:
   1     1     6         -0.01910   0.08220  -0.08130   0.04843   0.09924
   2     1     6         -0.00305   0.15175   0.11894   0.01692   0.00161
   3     1     6         -0.02430  -0.03304   0.00591   0.12249  -0.13037
   1     2     6         -0.04349   0.00034   0.09076   0.06812  -0.01282
   2     2     6         -0.02912   0.18101   0.06838   0.01755   0.05567
   3     2     6         -0.14170  -0.06462  -0.02185   0.15960  -0.03214
   1     3    17          0.02989   0.07215   0.27230  -0.03906  -0.18324
   2     3    17          0.01410  -0.09460  -0.00760   0.00703  -0.02182
   3     3    17          0.00516  -0.00603  -0.11656  -0.00166   0.08458
   1     4     6         -0.05123  -0.13475  -0.08350  -0.01288   0.10796
   2     4     6         -0.03605   0.12132  -0.02466  -0.03624   0.10858
   3     4     6         -0.12686  -0.02183   0.09013  -0.13880   0.00598
   1     5     6          0.05714  -0.11249  -0.15010   0.06263   0.10255
   2     5     6          0.01449  -0.01847  -0.12792  -0.01142  -0.03853
   3     5     6          0.15949   0.10389   0.04145   0.03140  -0.09360
   1     6     6          0.00149  -0.03050  -0.19780   0.06429   0.23848
   2     6     6         -0.00345  -0.08206  -0.08557  -0.00454  -0.09130
   3     6     6          0.03906   0.03271   0.08364   0.05681  -0.06257
   1     7     6         -0.07843   0.07381  -0.06885  -0.03284   0.21656
   2     7     6         -0.03765   0.00831   0.01783  -0.04764  -0.07513
   3     7     6         -0.18235  -0.09490   0.07712  -0.13459  -0.00995
   1     8     7          0.03936  -0.03013  -0.22211   0.00553  -0.01886
   2     8     7          0.04748   0.08679   0.06316   0.03051  -0.00793
   3     8     7          0.21868   0.12324   0.03668  -0.01309   0.10072
   1     9     7          0.03947   0.03002  -0.22213  -0.00561   0.01892
   2     9     7          0.04737  -0.08693   0.06308  -0.03062   0.00796
   3     9     7          0.21829  -0.12382   0.03674   0.01315  -0.10077
   1    10     6         -0.01925  -0.08212  -0.08133  -0.04843  -0.09925
   2    10     6         -0.00338  -0.15171   0.11889  -0.01701  -0.00157
   3    10     6         -0.02413   0.03311   0.00575  -0.12243   0.13015
   1    11     6         -0.04348  -0.00020   0.09073  -0.06821   0.01269
   2    11     6         -0.02963  -0.18084   0.06837  -0.01765  -0.05569
   3    11     6         -0.14144   0.06505  -0.02196  -0.15956   0.03177
   1    12    17          0.02983  -0.07226   0.27217   0.03906   0.18326
   2    12    17          0.01435   0.09447  -0.00765  -0.00702   0.02175
   3    12    17          0.00508   0.00602  -0.11665   0.00164  -0.08467
   1    13     6         -0.05102   0.13492  -0.08343   0.01292  -0.10789
   2    13     6         -0.03646  -0.12109  -0.02460   0.03644  -0.10854
   3    13     6         -0.12671   0.02220   0.09016   0.13876  -0.00555
   1    14     6          0.05744   0.11224  -0.15002  -0.06269  -0.10260
   2    14     6          0.01465   0.01839  -0.12790   0.01139   0.03862
   3    14     6          0.15915  -0.10435   0.04161  -0.03134   0.09357
   1    15     6          0.00156   0.03048  -0.19765  -0.06431  -0.23858
   2    15     6         -0.00328   0.08205  -0.08552   0.00444   0.09129
   3    15     6          0.03902  -0.03288   0.08388  -0.05681   0.06252
   1    16     6         -0.07867  -0.07350  -0.06878   0.03302  -0.21651
   2    16     6         -0.03785  -0.00815   0.01789   0.04779   0.07516
   3    16     6         -0.18199   0.09540   0.07713   0.13450   0.01032
   1    17     1         -0.08078  -0.27576  -0.23887  -0.10920   0.16687
   2    17     1         -0.03835   0.18955   0.07912  -0.10111   0.11181
   3    17     1         -0.16793  -0.02323   0.16090  -0.41593   0.08811
   1    18     1          0.15075  -0.17477  -0.15560   0.04702  -0.03073
   2    18     1          0.06285  -0.06078  -0.12665  -0.02074  -0.12441
   3    18     1          0.39590   0.20927  -0.02788   0.00913  -0.08155
   1    19     1          0.03641  -0.01869  -0.20629   0.06628   0.25705
   2    19     1          0.01944  -0.19980  -0.11765   0.01932  -0.11727
   3    19     1          0.13264   0.05400   0.05947   0.06269  -0.02256
   1    20     1         -0.10050   0.18544   0.08291  -0.12303   0.29495
   2    20     1         -0.06090  -0.07220  -0.05513  -0.09631  -0.07340
   3    20     1         -0.28288  -0.20071   0.05115  -0.40458   0.08645
   1    21     1         -0.08037   0.27605  -0.23875   0.10933  -0.16662
   2    21     1         -0.03893  -0.18925   0.07918   0.10163  -0.11173
   3    21     1         -0.16778   0.02377   0.16090   0.41569  -0.08698
   1    22     1          0.15126   0.17419  -0.15558  -0.04710   0.03071
   2    22     1          0.06335   0.06048  -0.12672   0.02072   0.12458
   3    22     1          0.39510  -0.21033  -0.02776  -0.00905   0.08149
   1    23     1          0.03650   0.01857  -0.20613  -0.06630  -0.25715
   2    23     1          0.01993   0.19968  -0.11763  -0.01952   0.11719
   3    23     1          0.13245  -0.05440   0.05982  -0.06271   0.02258
   1    24     1         -0.10100  -0.18493   0.08294   0.12339  -0.29471
   2    24     1         -0.06106   0.07249  -0.05504   0.09670   0.07345
   3    24     1         -0.28230   0.20159   0.05111   0.40429  -0.08530
                          16        17        18        19        20
                           A         A         A         A         A
       Frequencies ---   482.8998  537.6335  565.0779  578.6003  595.9512
    Reduced masses ---     3.5172    4.1534    7.1268    5.6745    4.5966
   Force constants ---     0.4832    0.7073    1.3408    1.1193    0.9619
    IR Intensities ---    11.6206    0.0000    9.8260    3.3635    7.6496
 Coord Atom Element:
   1     1     6          0.02250  -0.05036  -0.16563  -0.01809  -0.02968
   2     1     6          0.02092  -0.04392   0.06175  -0.02427  -0.09686
   3     1     6          0.06381  -0.16394  -0.05446   0.14443  -0.12671
   1     2     6          0.09603   0.05275   0.02923  -0.00293  -0.01130
   2     2     6          0.05266   0.04012  -0.03177  -0.10613  -0.05597
   3     2     6          0.22298   0.14600  -0.00236   0.03853   0.03114
   1     3    17         -0.00920   0.01448  -0.03817   0.03632   0.02733
   2     3    17         -0.00354  -0.01124   0.01898   0.00981  -0.00324
   3     3    17         -0.01795  -0.02021   0.01054  -0.01252  -0.01756
   1     4     6         -0.02733  -0.00236   0.17677  -0.03531  -0.02042
   2     4     6         -0.01679   0.02066  -0.01991  -0.14494  -0.05122
   3     4     6         -0.08935   0.08726   0.00619  -0.05439   0.12761
   1     5     6         -0.00168  -0.10509   0.15867   0.02756  -0.12848
   2     5     6         -0.01468  -0.00148  -0.17241   0.04024   0.05007
   3     5     6         -0.01930  -0.14489  -0.11577   0.10576  -0.11927
   1     6     6          0.04416   0.03062   0.02371  -0.15119  -0.02256
   2     6     6          0.01284   0.05274  -0.06006   0.06119   0.09565
   3     6     6          0.11215   0.16497   0.06838  -0.05062   0.12949
   1     7     6         -0.03859  -0.03063  -0.14285  -0.11506  -0.06091
   2     7     6         -0.02317   0.01633  -0.13732   0.03665   0.04655
   3     7     6         -0.12458  -0.08392   0.04834   0.07860  -0.08835
   1     8     7         -0.04005  -0.01565   0.00267   0.18302   0.16866
   2     8     7         -0.00670  -0.05082   0.26959   0.08680   0.00223
   3     8     7         -0.04384   0.03079   0.00314  -0.17381   0.05098
   1     9     7         -0.04001   0.01577   0.00271   0.18304   0.16867
   2     9     7         -0.00671   0.05105   0.26944   0.08680   0.00224
   3     9     7         -0.04401  -0.03095   0.00302  -0.17389   0.05094
   1    10     6          0.02242   0.05033  -0.16573  -0.01810  -0.02973
   2    10     6          0.02095   0.04407   0.06157  -0.02424  -0.09700
   3    10     6          0.06378   0.16401  -0.05470   0.14421  -0.12672
   1    11     6          0.09618  -0.05277   0.02921  -0.00289  -0.01128
   2    11     6          0.05285  -0.04037  -0.03173  -0.10613  -0.05591
   3    11     6          0.22301  -0.14577  -0.00234   0.03864   0.03115
   1    12    17         -0.00908  -0.01443  -0.03813   0.03633   0.02731
   2    12    17         -0.00354   0.01127   0.01900   0.00983  -0.00326
   3    12    17         -0.01801   0.02018   0.01050  -0.01258  -0.01757
   1    13     6         -0.02747   0.00237   0.17675  -0.03526  -0.02031
   2    13     6         -0.01699  -0.02088  -0.01977  -0.14501  -0.05104
   3    13     6         -0.08930  -0.08730   0.00627  -0.05405   0.12773
   1    14     6         -0.00182   0.10528   0.15845   0.02749  -0.12862
   2    14     6         -0.01467   0.00160  -0.17241   0.04036   0.04991
   3    14     6         -0.01930   0.14480  -0.11587   0.10547  -0.11928
   1    15     6          0.04405  -0.03083   0.02384  -0.15124  -0.02241
   2    15     6          0.01309  -0.05287  -0.05993   0.06119   0.09576
   3    15     6          0.11225  -0.16481   0.06854  -0.05036   0.12943
   1    16     6         -0.03888   0.03043  -0.14272  -0.11512  -0.06090
   2    16     6         -0.02321  -0.01633  -0.13727   0.03669   0.04647
   3    16     6         -0.12454   0.08388   0.04851   0.07855  -0.08835
   1    17     1         -0.14632  -0.00878   0.18463  -0.03643   0.08295
   2    17     1         -0.07133   0.02044   0.01139  -0.19986  -0.05007
   3    17     1         -0.36944   0.07650   0.10310  -0.19087   0.25315
   1    18     1         -0.05600  -0.18488   0.14981   0.18101  -0.09812
   2    18     1         -0.04287  -0.04058  -0.17691   0.13559   0.07592
   3    18     1         -0.15020  -0.37377  -0.18664   0.13129  -0.25135
   1    19     1          0.06316   0.11647   0.04953  -0.22127   0.07586
   2    19     1          0.02481   0.06130   0.19984   0.09707   0.08984
   3    19     1          0.16265   0.39343   0.15416  -0.22632   0.39337
   1    20     1         -0.11559  -0.03625  -0.04836  -0.21353  -0.09835
   2    20     1         -0.07421   0.02640  -0.15599   0.05408   0.10616
   3    20     1         -0.38318  -0.05665   0.11206   0.01215   0.05479
   1    21     1         -0.14664   0.00876   0.18476  -0.03630   0.08314
   2    21     1         -0.07187  -0.02070   0.01166  -0.20001  -0.04971
   3    21     1         -0.36929  -0.07672   0.10332  -0.19017   0.25327
   1    22     1         -0.05615   0.18532   0.14946   0.18094  -0.09844
   2    22     1         -0.04296   0.04104  -0.17704   0.13580   0.07559
   3    22     1         -0.15030   0.37353  -0.18687   0.13068  -0.25145
[...]
 7,0.00013029,0.00068453,-0.00046589,0.00006918,0.00848488,-0.00292324,
 0.00355686,-0.03672368,0.02458834,0.00806114,-0.30220565,0.01692272,0.
 07930101,-0.01000475,-0.07973179,0.02144899,0.00127027,0.00225028,0.00
 085680,-0.05660806,0.03014355,0.01277515,0.06452945,0.03207534,-0.0273
 9662,-0.19568247,0.07836900,0.03580069,0.63543610,-0.00018610,-0.00100
 271,0.00321484,0.00183259,0.00032438,-0.00055320,-0.00072986,0.0000039
 9,0.00041473,-0.00031191,-0.00018910,-0.00012812,0.00013425,-0.0001034
 7,-0.00000079,-0.00010982,-0.00020733,-0.00000491,-0.00046607,-0.00030
 402,-0.00012415,0.00349102,-0.00322542,-0.00179073,0.04282999,-0.00375
 015,-0.01096290,-0.04580039,-0.12335056,0.02055176,-0.02620990,0.03743
 236,0.00366378,-0.00228765,-0.00455277,0.00252612,0.03109031,-0.020485
 73,-0.00767113,-0.01919304,-0.05793604,0.01934179,0.14691035,-0.299147
 17,-0.01351645,-0.02945725,0.75720959,-0.00030804,0.00076238,-0.000047
 21,-0.00012788,-0.00001381,0.00014064,0.00008893,0.00002932,-0.0000500
 7,0.00009409,0.00001015,-0.00004730,-0.00001169,-0.00006540,0.00001744
 ,-0.00000501,0.00005171,0.00002046,0.00006926,-0.00012408,-0.00009643,
 -0.00059260,0.00145662,0.00153875,0.00281814,-0.00318806,0.00382939,0.
 09281383,-0.00362909,-0.10054209,0.01282095,0.02678048,-0.00183631,0.0
 0124500,0.00120582,0.00389960,0.01443956,-0.00804412,-0.00837428,-0.01
 693046,0.00016460,0.01547973,0.02259326,0.00943326,-0.07753996,-0.1744
 9711,-0.09399574,0.22189697,-0.00101341,0.00272476,0.00203872,0.007902
 38,0.01645618,-0.00506766,0.00018644,0.00072920,-0.00142719,-0.0996434
 2,-0.09986289,0.04550699,-0.00493344,-0.02495808,0.00880984,-0.0038113
 5,0.00130330,0.00392445,-0.00074061,0.00072052,-0.00023971,0.00027909,
 0.00088156,-0.00029779,0.00021685,-0.00010304,0.00002645,-0.00004491,-
 0.00002180,0.00004566,0.00000119,-0.00002012,-0.00000415,-0.00000355,0
 .00001025,-0.00000308,-0.00000098,-0.00000217,0.00000189,-0.00000113,0
 .00000130,-0.00000178,-0.00001359,-0.00000460,0.00000679,0.00002068,0.
 00003871,-0.00001094,0.10182880,0.00417412,-0.00258677,0.00047736,-0.0
 1285595,-0.01604915,0.00890042,-0.00094764,0.00083780,-0.00036922,-0.0
 9736691,-0.27104216,0.08719098,0.00293135,0.00465732,-0.00130072,0.000
 89049,0.00173836,0.00076843,0.00083549,0.00033778,-0.00056307,-0.00088
 614,-0.00067525,0.00016591,-0.00001611,0.00026488,0.00024262,0.0000419
 3,0.00006006,-0.00015325,0.00004321,0.00005162,-0.00000648,-0.00001717
 ,-0.00001249,0.00001354,0.00001228,-0.00000103,-0.00000289,0.00000541,
 -0.00002000,0.00000233,0.00001993,0.00000892,0.00000273,-0.00002963,-0
 .00010242,0.00000488,0.10350206,0.28211457,0.00138656,0.00031912,0.005
 03765,0.00085971,-0.00119756,0.00357149,-0.00106845,-0.00120941,-0.002
 20735,0.04569326,0.08767301,-0.07403852,0.00251009,0.00950737,0.001258
 93,0.00394455,0.00078868,0.00526573,0.00016765,-0.00085801,-0.00090274
 ,0.00003725,-0.00005230,0.00031673,-0.00011277,-0.00010732,-0.00008215
 ,0.00000396,0.00005526,-0.00000315,0.00001459,-0.00000568,-0.00000132,
 -0.00000725,0.00000647,0.00000108,-0.00000650,-0.00000288,-0.00000044,
 -0.00000126,-0.00000082,-0.00000039,0.00000043,0.00000445,-0.00000340,
 0.00000761,-0.00000941,-0.00000196,-0.05169584,-0.09445598,0.06582126,
 -0.00061939,-0.00077824,0.00006928,-0.00260045,-0.00039425,0.00402089,
 -0.00107464,0.00067173,0.00027161,-0.00929247,0.02535336,0.00008281,-0
 .13847397,0.13116018,0.01237198,0.01060497,-0.01215645,0.00005247,0.00
 060970,-0.00237945,0.00277031,-0.00010951,-0.00000442,-0.00023156,-0.0
 0001164,0.00004894,-0.00008060,0.00000521,-0.00002636,0.00006140,-0.00
 002712,-0.00001037,0.00001490,0.00002317,0.00000411,-0.00000698,0.0000
 0385,0.00000267,-0.00001089,-0.00000184,0.00000299,0.00000027,0.000007
 28,0.00000119,-0.00000811,-0.00002422,0.00000129,0.00000242,0.00018707
 ,-0.00048212,-0.00172545,0.14041530,-0.00095209,0.00028299,0.00011446,
 -0.00037259,0.00170181,0.00125908,-0.00011394,0.00007200,0.00000892,-0
 .00366444,0.00447145,0.00135708,0.13132407,-0.26600562,-0.00583840,0.0
 1676148,-0.01475451,-0.00258821,-0.00270215,-0.00320451,0.00296075,0.0
 0004016,0.00003247,-0.00023014,-0.00000814,0.00002260,0.00007178,-0.00
 001921,-0.00000026,0.00000431,-0.00000336,0.00000283,0.00001290,0.0000
 1586,0.00000202,-0.00000666,0.00001646,-0.00000325,-0.00000897,0.00000
 192,-0.00001105,0.00000122,-0.00000145,-0.00000133,0.00000258,-0.00000
 716,-0.00001307,-0.00000570,-0.00021832,0.00036192,-0.00086057,-0.1405
 1730,0.27708143,0.00063494,0.00034361,-0.00087876,0.00360823,0.0013865
 2,0.00559492,0.00046999,-0.00017409,-0.00020519,0.00624599,-0.00987738
 ,0.00380362,0.01227682,-0.00558495,-0.04298708,-0.00569274,0.00810688,
 0.00494951,0.00281500,0.00260190,0.00533986,-0.00057667,-0.00005074,-0
 .00059349,-0.00014264,0.00004011,-0.00003239,-0.00003651,-0.00002432,0
 .00006311,0.00002101,-0.00000523,-0.00000974,-0.00000277,-0.00000820,0
 .00001347,-0.00000504,-0.00000198,-0.00000795,0.00000316,-0.00000183,-
 0.00000207,-0.00000974,-0.00000675,-0.00000114,-0.00001242,0.00002544,
 -0.00000687,-0.00176386,-0.00078796,-0.00356629,-0.01605992,0.00471755
 ,0.03179325,0.00147783,0.00320788,0.00185709,0.00056968,0.00001508,-0.
 00045868,-0.00012877,-0.00005718,-0.00020378,0.00156049,-0.00194569,0.
 00235555,-0.00584772,0.00356777,0.00294734,-0.31006414,-0.00630258,0.1
 0266169,-0.00991368,-0.00391037,0.00576761,-0.00050256,-0.00039541,0.0
 0026040,-0.00018385,0.00015786,-0.00007094,0.00003246,-0.00002398,-0.0
 0004558,-0.00012829,-0.00002752,0.00003530,0.00005255,0.00001572,-0.00
 002929,0.00000839,0.00000884,-0.00000025,-0.00001405,0.00001948,0.0000
 0101,0.00000657,0.00000927,-0.00001248,0.00001239,0.00005071,0.0000100
 0,-0.00036842,0.00016839,0.00015776,0.00001188,-0.00031438,-0.00148576
 ,0.32329291,0.00246340,-0.00372670,0.00071214,0.00012406,-0.00157916,0
 .00010412,-0.00009467,0.00016455,-0.00012829,-0.00145091,-0.00410588,0
 .00261980,-0.02560207,0.00479226,0.00939674,-0.00645180,-0.05913467,0.
 00600724,0.02521608,0.00561844,-0.00955313,0.00111077,0.00053482,-0.00
 053645,0.00028611,-0.00032423,0.00005701,-0.00000902,-0.00004679,0.000
 13470,0.00014572,0.00002956,-0.00005475,-0.00006665,-0.00002006,0.0000
 3869,-0.00002423,-0.00001113,0.00000305,0.00001150,-0.00001182,-0.0000
 0061,-0.00000718,-0.00000920,0.00000060,-0.00002349,-0.00003695,-0.000
 00367,-0.00110091,0.00012526,0.00046064,0.00008388,0.00071564,-0.00097
 212,0.00608309,0.05634346,0.00212844,0.00116632,0.00631932,-0.00062241
 ,-0.00015045,-0.00033123,-0.00020900,-0.00020955,-0.00062693,0.0022034
 7,0.00272806,0.00559017,0.00843972,-0.00128455,0.00091569,0.10248435,0
 .00556119,-0.07813504,0.00026855,0.00162429,0.00348402,0.00014757,-0.0
 0006407,0.00014538,-0.00000826,-0.00001818,-0.00013389,-0.00000212,-0.
 00007415,0.00002077,0.00002193,0.00001272,0.00000116,-0.00000532,-0.00
 000041,0.00000074,-0.00000254,-0.00000802,-0.00000116,-0.00000023,0.00
 000212,-0.00000072,0.00000188,-0.00000699,-0.00000110,-0.00001790,0.00
 000217,0.00000076,0.00032948,-0.00004429,-0.00002960,-0.00155606,-0.00
 080217,-0.00338893,-0.11209601,-0.00768632,0.06992401,-0.00616064,-0.0
 2548350,0.00896400,-0.00312268,0.00149630,0.00290888,-0.00099041,-0.00
 094427,0.00066897,-0.00085187,0.00061253,-0.00010816,-0.00060215,0.003
 50114,0.00207524,0.01092530,0.01592720,-0.00506632,-0.09802977,-0.0961
 5249,0.03709874,0.00080571,-0.00220743,-0.00281011,-0.00040577,0.00060
 007,0.00093583,0.00001465,-0.00006585,-0.00015776,-0.00034135,-0.00010
 303,0.00021990,0.00019375,0.00038693,-0.00026419,0.00021535,0.00000405
 ,-0.00012156,-0.00002132,-0.00007094,0.00001186,0.00001948,0.00002205,
 -0.00000278,-0.00004111,-0.00005500,-0.00001195,-0.00003416,-0.0000518
 1,-0.00017286,0.00034535,0.00073387,-0.00028909,0.00012057,-0.00069874
 ,-0.00150592,0.09790830,0.00208650,0.00310572,-0.00022832,0.00014539,0
 .00088983,0.00055880,0.00035889,0.00015489,-0.00008189,0.00086404,0.00
 052079,-0.00050581,0.00375720,-0.00260535,0.00011876,-0.01223595,-0.01
 345646,0.00825647,-0.09732473,-0.28345565,0.07608894,0.00137359,-0.000
 30907,-0.00042162,-0.00052193,0.00002901,-0.00053127,-0.00008516,-0.00
 003010,0.00021096,0.00019856,0.00008793,-0.00018056,0.00000629,-0.0003
 8143,0.00024031,-0.00010842,-0.00001378,0.00001567,0.00001454,0.000024
 50,0.00000378,-0.00002870,-0.00002495,0.00000610,-0.00003028,0.0000346
 6,-0.00001328,-0.00008306,-0.00004604,-0.00004959,-0.00057652,-0.00075
 263,0.00026643,-0.00033750,0.00069328,-0.00074877,0.10254263,0.2955410
 1,0.00407543,0.01023303,0.00212308,0.00343422,0.00087631,0.00455251,0.
 00024429,0.00038070,-0.00015780,0.00013504,-0.00051166,-0.00092262,0.0
 0217305,0.00009401,0.00621776,-0.00071215,-0.00244762,0.00513613,0.038
 89012,0.07529502,-0.06600643,-0.00317512,0.00006191,-0.00263481,-0.000
 77504,0.00009049,-0.00065975,-0.00003708,-0.00020078,0.00038461,-0.000
 07558,-0.00014533,0.00001183,0.00007821,0.00008824,-0.00004949,0.00004
 740,-0.00000241,-0.00007705,0.00001182,-0.00000841,0.00000453,-0.00001
 795,-0.00003126,-0.00000332,-0.00004673,0.00008997,-0.00000194,-0.0001
 7576,-0.00008946,-0.00044235,-0.00004879,-0.00017079,0.00011212,-0.001
 65314,-0.00060624,-0.00375901,-0.04237722,-0.08301669,0.05615547,-0.00
 004499,-0.00002186,0.00004599,0.00000114,-0.00002020,-0.00000415,-0.00
 000349,0.00001025,-0.00000308,-0.00000101,-0.00000217,0.00000188,-0.00
 000113,0.00000133,-0.00000179,-0.00001358,-0.00000461,0.00000676,0.000
 02066,0.00003878,-0.00001086,0.00021687,-0.00010279,0.00002542,0.00027
 927,0.00088119,-0.00029779,-0.00101279,0.00272892,0.00203943,0.0078992
 0,0.01645507,-0.00508966,0.00018575,0.00072570,-0.00142934,-0.09951733
 ,-0.09968715,0.04558918,-0.00491668,-0.02494492,0.00883801,-0.00380639
 ,0.00130503,0.00392925,-0.00074214,0.00071952,-0.00024030,-0.00000031,
 0.00000058,0.00000137,-0.00000037,-0.00000131,0.00000023,-0.00000204,0
 .00000457,0.00000109,-0.00001080,0.00000328,-0.00000523,0.10168710,0.0
 0004206,0.00005999,-0.00015345,0.00004326,0.00005169,-0.00000642,-0.00
 001722,-0.00001251,0.00001355,0.00001233,-0.00000105,-0.00000288,0.000
 00540,-0.00002003,0.00000233,0.00001989,0.00000889,0.00000276,-0.00002
 960,-0.00010241,0.00000476,-0.00001616,0.00026436,0.00024278,-0.000885
 51,-0.00067427,0.00016716,0.00417630,-0.00258404,0.00048275,-0.0128416
 9,-0.01604057,0.00892657,-0.00094893,0.00083643,-0.00037256,-0.0971932
 6,-0.27090823,0.08746006,0.00292976,0.00465810,-0.00130330,0.00089340,
 0.00174026,0.00077292,0.00083432,0.00033704,-0.00056506,0.00000058,-0.
 00000436,-0.00000061,0.00000181,-0.00000096,-0.00000045,0.00000815,-0.
 00000871,-0.00000168,0.00001823,-0.00000909,0.00000693,0.10331519,0.28
 197043,0.00000389,0.00005521,-0.00000294,0.00001454,-0.00000575,-0.000
 00130,-0.00000722,0.00000645,0.00000110,-0.00000652,-0.00000288,-0.000
 00045,-0.00000126,-0.00000080,-0.00000040,0.00000042,0.00000445,-0.000
 00339,0.00000765,-0.00000931,-0.00000198,-0.00011229,-0.00010756,-0.00
 008272,0.00003771,-0.00005163,0.00031723,0.00138736,0.00032567,0.00503
 333,0.00087108,-0.00119304,0.00356699,-0.00106898,-0.00121213,-0.00220
 406,0.04576924,0.08794633,-0.07427361,0.00251138,0.00952245,0.00124141
 ,0.00394968,0.00079007,0.00525985,0.00016463,-0.00085848,-0.00090087,0
 .00000137,-0.00000061,0.00000053,0.00000022,0.00000015,0.00000164,0.00
 000091,-0.00000041,0.00000162,0.00000446,-0.00000460,0.00000303,-0.051
 78544,-0.09474951,0.06608018,0.00000515,-0.00002633,0.00006149,-0.0000
 2712,-0.00001040,0.00001487,0.00002318,0.00000407,-0.00000693,0.000003
 84,0.00000268,-0.00001089,-0.00000183,0.00000299,0.00000027,0.00000726
 ,0.00000118,-0.00000811,-0.00002417,0.00000132,0.00000236,-0.00001171,
 0.00004897,-0.00008080,-0.00011023,-0.00000481,-0.00023161,-0.00061786
 ,-0.00077805,0.00006968,-0.00259521,-0.00039161,0.00402645,-0.00107435
 ,0.00067166,0.00027158,-0.00929645,0.02534177,0.00006521,-0.13855580,0
 .13122804,0.01230400,0.01059921,-0.01214268,0.00006192,0.00061540,-0.0
 0237367,0.00277445,-0.00000037,0.00000181,0.00000022,0.00000103,0.0000
 0237,0.00000082,-0.00000062,-0.00000017,0.00000123,0.00002139,-0.00000
 884,0.00000780,0.00018512,-0.00048453,-0.00172730,0.14049951,-0.000019
 20,-0.00000038,0.00000437,-0.00000340,0.00000281,0.00001292,0.00001591
 ,0.00000201,-0.00000666,0.00001650,-0.00000325,-0.00000900,0.00000192,
 -0.00001106,0.00000121,-0.00000146,-0.00000135,0.00000257,-0.00000720,
 -0.00001304,-0.00000570,-0.00000844,0.00002269,0.00007166,0.00003934,0
 .00003252,-0.00023073,-0.00095152,0.00028277,0.00011371,-0.00036936,0.
 00170413,0.00126509,-0.00011389,0.00007206,0.00000888,-0.00366243,0.00
 447048,0.00135892,0.13139105,-0.26593541,-0.00569131,0.01676238,-0.014
 74851,-0.00257969,-0.00269576,-0.00320059,0.00297279,-0.00000131,-0.00
 000096,0.00000015,0.00000237,-0.00000225,0.00000010,0.00000360,-0.0000
 0121,-0.00000104,-0.00000396,0.00000352,0.00000180,-0.00022075,0.00035
 992,-0.00086529,-0.14059122,0.27700389,-0.00003651,-0.00002425,0.00006
 308,0.00002113,-0.00000521,-0.00000979,-0.00000284,-0.00000832,0.00001
 355,-0.00000510,-0.00000197,-0.00000794,0.00000317,-0.00000181,-0.0000
 0208,-0.00000974,-0.00000677,-0.00000114,-0.00001238,0.00002543,-0.000
 00687,-0.00014257,0.00004021,-0.00003273,-0.00057751,-0.00005115,-0.00
 059176,0.00063659,0.00034299,-0.00088031,0.00361395,0.00139086,0.00558
 777,0.00047093,-0.00017479,-0.00020524,0.00626041,-0.00989332,0.003807
 62,0.01220909,-0.00543677,-0.04298865,-0.00571792,0.00813366,0.0049468
 0,0.00282110,0.00261285,0.00532895,0.00000023,-0.00000045,0.00000164,0
 .00000082,0.00000010,0.00000266,0.00000017,0.00000145,0.00000114,0.000
 00077,0.00000596,0.00000459,-0.00176603,-0.00079225,-0.00356265,-0.015
 99023,0.00455258,0.03180332,0.00003237,-0.00002376,-0.00004561,-0.0001
 2831,-0.00002760,0.00003521,0.00005259,0.00001575,-0.00002927,0.000008
 35,0.00000884,-0.00000022,-0.00001405,0.00001949,0.00000101,0.00000659
 ,0.00000932,-0.00001247,0.00001243,0.00005070,0.00000999,-0.00018359,0
 .00015758,-0.00007091,-0.00050305,-0.00039539,0.00026105,0.00147868,0.
 00321169,0.00185811,0.00056872,0.00001552,-0.00045940,-0.00012899,-0.0
 0005764,-0.00020406,0.00156489,-0.00193894,0.00235936,-0.00583143,0.00
 356596,0.00294435,-0.30988246,-0.00627715,0.10282245,-0.00991617,-0.00
 390902,0.00578437,-0.00000203,0.00000815,0.00000093,-0.00000062,0.0000
 0360,0.00000017,-0.00000624,0.00000422,0.00000191,0.00001468,-0.000005
 46,-0.00000081,-0.00036768,0.00016832,0.00015765,0.00000974,-0.0003168
 7,-0.00148733,0.32309701,-0.00000897,-0.00004708,0.00013474,0.00014587
 ,0.00002970,-0.00005467,-0.00006674,-0.00002011,0.00003870,-0.00002425
 ,-0.00001113,0.00000302,0.00001151,-0.00001181,-0.00000061,-0.00000721
 ,-0.00000924,0.00000058,-0.00002355,-0.00003693,-0.00000368,0.00028564
 ,-0.00032398,0.00005689,0.00111038,0.00053524,-0.00053719,0.00246824,-
 0.00372365,0.00071918,0.00012405,-0.00157900,0.00010516,-0.00009498,0.
 00016414,-0.00012919,-0.00144471,-0.00410134,0.00263143,-0.02558784,0.
 00479379,0.00941077,-0.00642972,-0.05912921,0.00602814,0.02520433,0.00
 561667,-0.00957077,0.00000457,-0.00000872,-0.00000042,-0.00000018,-0.0
 0000121,0.00000146,0.00000422,-0.00000382,-0.00000058,-0.00000358,0.00
 000309,0.00000639,-0.00110044,0.00012533,0.00046113,0.00008150,0.00071
 379,-0.00097687,0.00605231,0.05633373,-0.00000206,-0.00007416,0.000020
 71,0.00002197,0.00001273,0.00000117,-0.00000533,-0.00000040,0.00000075
 ,-0.00000256,-0.00000801,-0.00000117,-0.00000023,0.00000214,-0.0000007
 2,0.00000188,-0.00000701,-0.00000109,-0.00001793,0.00000218,0.00000076
 ,-0.00000851,-0.00001779,-0.00013384,0.00014681,-0.00006446,0.00014571
 ,0.00212903,0.00117314,0.00631513,-0.00062365,-0.00014893,-0.00033042,
 -0.00020908,-0.00021034,-0.00062629,0.00220630,0.00274037,0.00558077,0
 .00846946,-0.00128883,0.00089861,0.10264374,0.00558152,-0.07829377,0.0
 0025552,0.00162397,0.00348748,0.00000109,-0.00000168,0.00000162,0.0000
 0122,-0.00000104,0.00000114,0.00000190,-0.00000058,0.00000066,-0.00000
 384,0.00000433,0.00000217,0.00033102,-0.00004449,-0.00003040,-0.001557
 99,-0.00080676,-0.00338456,-0.11227082,-0.00771319,0.07010117,0.000014
 87,-0.00006639,-0.00015751,-0.00034202,-0.00010342,0.00021950,0.000192
 97,0.00038828,-0.00026415,0.00021570,0.00000404,-0.00012160,-0.0000213
 7,-0.00007096,0.00001184,0.00001945,0.00002199,-0.00000280,-0.00004116
 ,-0.00005483,-0.00001201,-0.00040787,0.00059924,0.00093438,0.00080174,
 -0.00220683,-0.00280993,-0.00614639,-0.02547033,0.00899275,-0.00311791
 ,0.00149955,0.00291278,-0.00098980,-0.00094371,0.00067000,-0.00085122,
 0.00061108,-0.00010877,-0.00060183,0.00350293,0.00207715,0.01091919,0.
 01592928,-0.00508662,-0.09792154,-0.09600906,0.03718171,-0.00001082,0.
 00001827,0.00000445,0.00002142,-0.00000397,0.00000080,0.00001468,-0.00
 000356,-0.00000383,0.00002754,-0.00000436,0.00000320,-0.00003439,-0.00
 005208,-0.00017319,0.00034488,0.00073370,-0.00029023,0.00011858,-0.000
 70047,-0.00150794,0.09779530,-0.00008551,-0.00003029,0.00021151,0.0001
 9944,0.00008861,-0.00018076,0.00000689,-0.00038393,0.00024059,-0.00010
 886,-0.00001382,0.00001567,0.00001460,0.00002456,0.00000378,-0.0000287
 6,-0.00002504,0.00000609,-0.00003040,0.00003468,-0.00001324,-0.0005226
 2,0.00003037,-0.00053213,0.00136823,-0.00031059,-0.00042419,0.00208848
 ,0.00310960,-0.00022793,0.00014844,0.00089211,0.00056229,0.00035881,0.
 00015529,-0.00008224,0.00086352,0.00051990,-0.00050803,0.00375979,-0.0
 0260334,0.00012434,-0.01222486,-0.01345101,0.00828069,-0.09717447,-0.2
 8335119,0.07634674,0.00000330,-0.00000912,-0.00000461,-0.00000886,0.00
 000352,0.00000598,-0.00000546,0.00000308,0.00000433,-0.00000439,-0.000
 00368,0.00000587,-0.00008323,-0.00004621,-0.00004992,-0.00057606,-0.00
 075260,0.00026784,-0.00033961,0.00069175,-0.00075270,0.10238161,0.2954
 2734,-0.00003736,-0.00020064,0.00038503,-0.00007458,-0.00014480,0.0000
 1036,0.00007700,0.00008716,-0.00004858,0.00004682,-0.00000240,-0.00007
 675,0.00001196,-0.00000827,0.00000455,-0.00001802,-0.00003135,-0.00000
 332,-0.00004676,0.00008987,-0.00000187,-0.00077366,0.00009145,-0.00066
 183,-0.00318009,0.00006135,-0.00262571,0.00407203,0.01024918,0.0021050
 2,0.00343997,0.00088244,0.00454673,0.00024477,0.00038141,-0.00015920,0
 .00013735,-0.00051529,-0.00092243,0.00217230,0.00009874,0.00621604,-0.
 00070669,-0.00243744,0.00513465,0.03898023,0.07554860,-0.06619490,-0.0
 0000520,0.00000686,0.00000300,0.00000775,0.00000180,0.00000461,-0.0000
 0082,0.00000637,0.00000218,0.00000311,0.00000586,0.00000673,-0.0001759
 8,-0.00008992,-0.00044217,-0.00004848,-0.00017058,0.00011259,-0.001655
 66,-0.00061042,-0.00375559,-0.04246999,-0.08329997,0.05636087\\0.00000
 304,-0.00000409,0.00000025,0.00000969,0.00000484,-0.00000309,-0.000001
 18,0.00000295,0.00000826,0.00000171,-0.00000023,0.00000066,0.00000231,
 0.00000630,-0.00000251,-0.00000484,-0.00000524,0.00000397,0.00000232,0
 .00000029,-0.00000068,0.00000209,0.00000061,-0.00000122,-0.00000040,0.
 00000194,0.00000106,-0.00000028,-0.00000077,0.00000069,-0.00000163,0.0
 0001017,-0.00000369,-0.00000845,-0.00000120,-0.00000341,0.00000485,-0.
 00000710,-0.00000543,0.00000124,0.00000713,-0.00000318,0.00000216,-0.0
 0001072,0.00000338,-0.00000301,0.00000624,0.00000419,0.00000260,0.0000
 0469,-0.00000173,-0.00000238,0.00000016,0.00000068,-0.00000795,-0.0000
 0186,0.00000154,-0.00000344,-0.00000513,0.00000119,0.00000080,0.000002
 43,-0.00000355,0.00000332,-0.00000680,-0.00000210,-0.00000209,-0.00000
 280,0.00000223,-0.00000050,-0.00000179,0.00000247\\\@
 The archive entry for this job was punched.


 ERROR IS THE FORCE THAT WELDS MEN TOGETHER....
 TRUTH IS COMMUNICATED TO MEN ONLY BY DEEDS OF TRUTH.
           TOLSTOI,MY RELIGION
 Job cpu time:       0 days  0 hours 15 minutes 49.3 seconds.
 Elapsed time:       0 days  0 hours  1 minutes 36.1 seconds.
 File lengths (MBytes):  RWF=    245 Int=      0 D2E=      0 Chk=      6 Scr=      1
 Normal termination of Gaussian 16 at Fri Mar  6 17:33:18 2026.
