 Entering Gaussian System, Link 0=g16
 Initial command:
 /prod/precompiled/gaussian/16c2/g16/l1.exe "/scratch/ucsscms/svela/2076367/Gau-972342.inp" -scrdir="/scratch/ucsscms/svela/2076367/"
 Entering Link 1 = /prod/precompiled/gaussian/16c2/g16/l1.exe PID=    972344.
  
 Copyright (c) 1988-2021, Gaussian, Inc.  All Rights Reserved.
  
 This is part of the Gaussian(R) 16 program.  It is based on
 the Gaussian(R) 09 system (copyright 2009, Gaussian, Inc.),
 the Gaussian(R) 03 system (copyright 2003, Gaussian, Inc.),
 the Gaussian(R) 98 system (copyright 1998, Gaussian, Inc.),
 the Gaussian(R) 94 system (copyright 1995, Gaussian, Inc.),
 the Gaussian 92(TM) system (copyright 1992, Gaussian, Inc.),
 the Gaussian 90(TM) system (copyright 1990, Gaussian, Inc.),
 the Gaussian 88(TM) system (copyright 1988, Gaussian, Inc.),
 the Gaussian 86(TM) system (copyright 1986, Carnegie Mellon
 University), and the Gaussian 82(TM) system (copyright 1983,
 Carnegie Mellon University). Gaussian is a federally registered
 trademark of Gaussian, Inc.
  
 This software contains proprietary and confidential information,
 including trade secrets, belonging to Gaussian, Inc.
  
 This software is provided under written license and may be
 used, copied, transmitted, or stored only in accord with that
 written license.
  
 The following legend is applicable only to US Government
 contracts under FAR:
  
                    RESTRICTED RIGHTS LEGEND
  
 Use, reproduction and disclosure by the US Government is
 subject to restrictions as set forth in subparagraphs (a)
 and (c) of the Commercial Computer Software - Restricted
 Rights clause in FAR 52.227-19.
  
 Gaussian, Inc.
 340 Quinnipiac St., Bldg. 40, Wallingford CT 06492
  
  
 ---------------------------------------------------------------
 Warning -- This program may not be used in any manner that
 competes with the business of Gaussian, Inc. or will provide
 assistance to any competitor of Gaussian, Inc.  The licensee
 of this program is prohibited from giving any competitor of
 Gaussian, Inc. access to this program.  By using this program,
 the user acknowledges that Gaussian, Inc. is engaged in the
 business of creating and licensing software in the field of
 computational chemistry and represents and warrants to the
 licensee that it is not a competitor of Gaussian, Inc. and that
 it will not use this program in any manner prohibited above.
 ---------------------------------------------------------------
  

 Cite this work as:
 Gaussian 16, Revision C.02,
 M. J. Frisch, G. W. Trucks, H. B. Schlegel, G. E. Scuseria, 
 M. A. Robb, J. R. Cheeseman, G. Scalmani, V. Barone, 
 G. A. Petersson, H. Nakatsuji, X. Li, M. Caricato, A. V. Marenich, 
 J. Bloino, B. G. Janesko, R. Gomperts, B. Mennucci, H. P. Hratchian, 
 J. V. Ortiz, A. F. Izmaylov, J. L. Sonnenberg, D. Williams-Young, 
 F. Ding, F. Lipparini, F. Egidi, J. Goings, B. Peng, A. Petrone, 
 T. Henderson, D. Ranasinghe, V. G. Zakrzewski, J. Gao, N. Rega, 
 G. Zheng, W. Liang, M. Hada, M. Ehara, K. Toyota, R. Fukuda, 
 J. Hasegawa, M. Ishida, T. Nakajima, Y. Honda, O. Kitao, H. Nakai, 
 T. Vreven, K. Throssell, J. A. Montgomery, Jr., J. E. Peralta, 
 F. Ogliaro, M. J. Bearpark, J. J. Heyd, E. N. Brothers, K. N. Kudin, 
 V. N. Staroverov, T. A. Keith, R. Kobayashi, J. Normand, 
 K. Raghavachari, A. P. Rendell, J. C. Burant, S. S. Iyengar, 
 J. Tomasi, M. Cossi, J. M. Millam, M. Klene, C. Adamo, R. Cammi, 
 J. W. Ochterski, R. L. Martin, K. Morokuma, O. Farkas, 
 J. B. Foresman, and D. J. Fox, Gaussian, Inc., Wallingford CT, 2019.
 
 ******************************************
 Gaussian 16:  ES64L-G16RevC.02  7-Dec-2021
                 6-Mar-2026 
 ******************************************
 %nprocs=12
 Will use up to   12 processors via shared memory.
 %mem=18gb
 %chk=test_tsinv_r_b_ts_r1.chk
 ----------------------------------------------------------------------
 #p nosymm scf=(maxconventionalcycles=200,xqc) wB97XD def2SVP opt=(TS,N
 oEigenTest,RecalcFC=30,Cartesian,SkipDihedral,MaxCycles=300)
 ----------------------------------------------------------------------
 1/5=1,6=300,10=7,11=1,18=10,26=3,38=1,71=30,156=2/1,3;
 2/12=2,15=1,17=6,18=5,29=2,40=1/2;
 3/5=43,7=101,11=2,25=1,30=1,71=2,74=-58,140=1/1,2,3;
 4//1;
 5/5=2,8=3,13=1,38=5,85=200/2,8;
 8/6=4,10=90,11=11/1;
 11/6=1,8=1,9=11,15=111,16=1,31=1/1,2,10;
 10/6=1,31=1/2;
 6/7=2,8=2,9=2,10=2,28=1/1;
 7/7=1,10=1,25=1,30=1/1,2,3,16;
 1/5=1,6=300,10=7,11=1,18=10,26=3,71=30,156=2/3(3);
 2/15=1,29=1/2;
 7/7=1,9=1,25=1,30=1,44=-1/16;
 99/12=1/99;
 2/15=1,29=1/2;
 3/5=43,7=101,11=2,25=1,30=1,71=2,74=-58,140=1/1,2,3;
 4/5=5,16=3,69=1/1;
 5/5=2,8=3,13=1,38=5,85=200/2,8;
 8/6=4,10=90,11=11/1;
 11/6=1,8=1,9=11,15=111,16=1,31=1/1,2,10;
 10/6=1,31=1/2;
 7/7=1,10=1,25=1,30=1/1,2,3,16;
 1/5=1,6=300,11=1,18=10,26=3,71=30,156=2/3(-8);
 2/15=1,29=1/2;
 6/7=2,8=2,9=2,10=2,19=2,28=1/1;
 7/7=1,9=1,25=1,30=1,44=-1/16;
 99/9=1,12=1/99;
 Leave Link    1 at Fri Mar  6 16:25:20 2026, MaxMem=  2415919104 cpu:               0.3 elap:               0.6
 (Enter /prod/precompiled/gaussian/16c2/g16/l101.exe)
 ----------
 Title Card
 ----------
 Symbolic Z-matrix:
 Charge =  0 Multiplicity = 1
 C                    -1.82433   1.29954  -0.0881 
 C                    -1.16239   2.54871  -0.04063 
 Cl                    0.55434   2.75384   0.11866 
 C                    -1.88489   3.75277  -0.11174 
 C                    -3.27127   3.74966  -0.22447 
 C                    -3.94678   2.53867  -0.28291 
 C                    -3.2304    1.33337  -0.22274 
 N                    -1.24459  -0.00217   0. 
 N                     0.        0.        0. 
 C                     1.41159   0.        0. 
 C                     2.21222   0.57711  -0.99958 
 Cl                    1.54478   1.30339  -2.42211 
 C                     3.60755   0.63156  -0.85692 
 C                     4.22233   0.12386   0.28703 
 C                     3.44626  -0.42915   1.29822 
 C                     2.05312  -0.48265   1.15716 
 H                    -1.35834   4.70356  -0.0725 
 H                    -3.81473   4.69097  -0.2661 
 H                    -5.03136   2.5297   -0.37252 
 H                    -3.7864    0.39846  -0.27941 
 H                     4.21689   1.08821  -1.63176 
 H                     5.30455   0.1752    0.39153 
 H                     3.91901  -0.80681   2.20271 
 H                     1.45678  -0.88684   1.97264 
 
 ITRead=  0  0  0  0  0  0  0  0  0  0  0  0  0  0  0  0  0  0  0  0
 ITRead=  0  0  0  0
 MicOpt= -1 -1 -1 -1 -1 -1 -1 -1 -1 -1 -1 -1 -1 -1 -1 -1 -1 -1 -1 -1
 MicOpt= -1 -1 -1 -1
 NAtoms=     24 NQM=       24 NQMF=       0 NMMI=      0 NMMIF=      0
                NMic=       0 NMicF=      0.
                    Isotopes and Nuclear Properties:
 (Nuclear quadrupole moments (NQMom) in fm**2, nuclear magnetic moments (NMagM)
  in nuclear magnetons)

  Atom         1           2           3           4           5           6           7           8           9          10
 IAtWgt=          12          12          35          12          12          12          12          14          14          12
 AtmWgt=  12.0000000  12.0000000  34.9688527  12.0000000  12.0000000  12.0000000  12.0000000  14.0030740  14.0030740  12.0000000
 NucSpn=           0           0           3           0           0           0           0           2           2           0
 AtZEff=  -0.0000000  -0.0000000  -0.0000000  -0.0000000  -0.0000000  -0.0000000  -0.0000000  -0.0000000  -0.0000000  -0.0000000
 NQMom=    0.0000000   0.0000000  -8.1650000   0.0000000   0.0000000   0.0000000   0.0000000   2.0440000   2.0440000   0.0000000
 NMagM=    0.0000000   0.0000000   0.8218740   0.0000000   0.0000000   0.0000000   0.0000000   0.4037610   0.4037610   0.0000000
 AtZNuc=   6.0000000   6.0000000  17.0000000   6.0000000   6.0000000   6.0000000   6.0000000   7.0000000   7.0000000   6.0000000

  Atom        11          12          13          14          15          16          17          18          19          20
 IAtWgt=          12          35          12          12          12          12           1           1           1           1
 AtmWgt=  12.0000000  34.9688527  12.0000000  12.0000000  12.0000000  12.0000000   1.0078250   1.0078250   1.0078250   1.0078250
 NucSpn=           0           3           0           0           0           0           1           1           1           1
 AtZEff=  -0.0000000  -0.0000000  -0.0000000  -0.0000000  -0.0000000  -0.0000000  -0.0000000  -0.0000000  -0.0000000  -0.0000000
 NQMom=    0.0000000  -8.1650000   0.0000000   0.0000000   0.0000000   0.0000000   0.0000000   0.0000000   0.0000000   0.0000000
 NMagM=    0.0000000   0.8218740   0.0000000   0.0000000   0.0000000   0.0000000   2.7928460   2.7928460   2.7928460   2.7928460
 AtZNuc=   6.0000000  17.0000000   6.0000000   6.0000000   6.0000000   6.0000000   1.0000000   1.0000000   1.0000000   1.0000000

  Atom        21          22          23          24
 IAtWgt=           1           1           1           1
 AtmWgt=   1.0078250   1.0078250   1.0078250   1.0078250
 NucSpn=           1           1           1           1
 AtZEff=  -0.0000000  -0.0000000  -0.0000000  -0.0000000
 NQMom=    0.0000000   0.0000000   0.0000000   0.0000000
 NMagM=    2.7928460   2.7928460   2.7928460   2.7928460
 AtZNuc=   1.0000000   1.0000000   1.0000000   1.0000000
 Leave Link  101 at Fri Mar  6 16:25:20 2026, MaxMem=  2415919104 cpu:               0.0 elap:               0.0
 (Enter /prod/precompiled/gaussian/16c2/g16/l103.exe)

 GradGradGradGradGradGradGradGradGradGradGradGradGradGradGradGradGradGrad
 Berny optimization.
 Initialization pass.
 No Z-matrix variables, so optimization will use Cartesian coordinates.
 Trust Radius=3.00D-01 FncErr=1.00D-07 GrdErr=1.00D-06 EigMax=2.50D+02 EigMin=1.00D-04
 Number of steps in this run=    144 maximum allowed number of steps=    144.
 Search for a saddle point of order  1.
 Step   0 in ReCalcFC=30 IGetFC= 4 compute analytic Hessian.
 GradGradGradGradGradGradGradGradGradGradGradGradGradGradGradGradGradGrad

 Leave Link  103 at Fri Mar  6 16:25:20 2026, MaxMem=  2415919104 cpu:               0.1 elap:               0.1
 (Enter /prod/precompiled/gaussian/16c2/g16/l202.exe)
 ---------------------------------------------------------------------------------------------------
                            Z-MATRIX (ANGSTROMS AND DEGREES)
   CD    Cent   Atom    N1       Length/X        N2       Alpha/Y        N3        Beta/Z          J
 ---------------------------------------------------------------------------------------------------
      1      1  C        0  -1.824334          1.299537         -0.088103
      2      2  C        0  -1.162387          2.548706         -0.040633
      3      3  Cl       0   0.554340          2.753840          0.118660
      4      4  C        0  -1.884894          3.752765         -0.111740
      5      5  C        0  -3.271270          3.749664         -0.224471
      6      6  C        0  -3.946781          2.538671         -0.282905
      7      7  C        0  -3.230402          1.333365         -0.222744
      8      8  N        0  -1.244593         -0.002172          0.000000
      9      9  N        0   0.000000          0.000000          0.000000
     10     10  C        0   1.411589          0.000000          0.000000
     11     11  C        0   2.212223          0.577110         -0.999584
     12     12  Cl       0   1.544783          1.303389         -2.422108
     13     13  C        0   3.607550          0.631562         -0.856916
     14     14  C        0   4.222327          0.123855          0.287030
     15     15  C        0   3.446259         -0.429147          1.298218
     16     16  C        0   2.053121         -0.482646          1.157164
     17     17  H        0  -1.358338          4.703555         -0.072503
     18     18  H        0  -3.814729          4.690969         -0.266104
     19     19  H        0  -5.031360          2.529698         -0.372521
     20     20  H        0  -3.786403          0.398459         -0.279410
     21     21  H        0   4.216889          1.088208         -1.631761
     22     22  H        0   5.304549          0.175198          0.391534
     23     23  H        0   3.919010         -0.806807          2.202715
     24     24  H        0   1.456782         -0.886843          1.972635
 ---------------------------------------------------------------------------------------------------
                         Z-Matrix orientation:                         
 ---------------------------------------------------------------------
 Center     Atomic      Atomic             Coordinates (Angstroms)
 Number     Number       Type             X           Y           Z
 ---------------------------------------------------------------------
      1          6           0       -1.824334    1.299537   -0.088103
      2          6           0       -1.162387    2.548706   -0.040633
      3         17           0        0.554340    2.753840    0.118660
      4          6           0       -1.884894    3.752765   -0.111740
      5          6           0       -3.271270    3.749664   -0.224471
      6          6           0       -3.946781    2.538671   -0.282905
      7          6           0       -3.230402    1.333365   -0.222744
      8          7           0       -1.244593   -0.002172    0.000000
      9          7           0        0.000000    0.000000    0.000000
     10          6           0        1.411589    0.000000    0.000000
     11          6           0        2.212223    0.577110   -0.999584
     12         17           0        1.544783    1.303389   -2.422108
     13          6           0        3.607550    0.631562   -0.856916
     14          6           0        4.222327    0.123855    0.287030
     15          6           0        3.446259   -0.429147    1.298218
     16          6           0        2.053121   -0.482646    1.157164
     17          1           0       -1.358338    4.703555   -0.072503
     18          1           0       -3.814729    4.690969   -0.266104
     19          1           0       -5.031360    2.529698   -0.372521
     20          1           0       -3.786403    0.398459   -0.279410
     21          1           0        4.216889    1.088208   -1.631761
     22          1           0        5.304549    0.175198    0.391534
     23          1           0        3.919010   -0.806807    2.202715
     24          1           0        1.456782   -0.886843    1.972635
 ---------------------------------------------------------------------
                    Distance matrix (angstroms):
                    1          2          3          4          5
     1  C    0.000000
     2  C    1.414514   0.000000
     3  Cl   2.795682   1.736262   0.000000
     4  C    2.454089   1.405998   2.645902   0.000000
     5  C    2.848744   2.433821   3.967959   1.390955   0.000000
     6  C    2.465397   2.794932   4.524118   2.398896   1.387888
     7  C    1.412905   2.405599   4.056917   2.770597   2.416645
     8  N    1.427693   2.552526   3.293303   3.810777   4.270138
     9  N    2.241596   2.801553   2.811585   4.201018   4.981122
    10  C    3.488231   3.622555   2.886623   4.996252   6.003294
    11  C    4.200773   4.024273   2.955875   5.259222   6.382366
    12  Cl   4.098603   3.814578   3.088736   4.806238   5.831658
    13  C    5.526539   5.205195   3.844204   6.361143   7.578965
    14  C    6.171310   5.914593   4.516558   7.115206   8.340391
    15  C    5.717463   5.647986   4.459368   6.920806   8.056441
    16  C    4.445394   4.578570   3.714792   5.920877   6.940497
    17  H    3.435802   2.163975   2.737932   1.087567   2.142968
    18  H    3.936390   3.416877   4.794713   2.151353   1.087721
    19  H    3.446622   3.883228   5.611733   3.385875   2.146661
    20  H    2.167546   3.400888   4.954627   3.859432   3.391011
    21  H    6.238903   5.796667   4.387775   6.829501   8.070709
    22  H    7.232922   6.902287   5.411870   8.046140   9.311334
    23  H    6.532269   6.489428   5.323767   7.735095   8.851711
    24  H    4.448890   4.766161   4.184041   6.085834   6.977030
                    6          7          8          9         10
     6  C    0.000000
     7  C    1.403418   0.000000
     8  N    3.719911   2.403479   0.000000
     9  N    4.701273   3.501853   1.244595   0.000000
    10  C    5.936077   4.834828   2.656183   1.411589   0.000000
    11  C    6.503436   5.549556   3.644765   2.495226   1.404720
    12  Cl   6.021577   5.257423   3.918126   3.154645   2.753756
    13  C    7.812456   6.903064   4.967818   3.761329   2.440373
    14  C    8.537593   7.567427   5.475900   4.233884   2.828069
    15  C    8.121880   7.070896   4.885875   3.707592   2.451412
    16  C    6.870297   5.754794   3.527719   2.405677   1.408382
    17  H    3.380980   3.858157   4.707660   4.896302   5.459046
    18  H    2.156411   3.408346   5.357423   6.052120   7.027830
    19  H    1.088312   2.167278   4.570420   5.643822   6.931792
    20  H    2.146215   1.089219   2.588315   3.817550   5.220724
    21  H    8.400522   7.583375   5.803392   4.650698   3.422944
    22  H    9.572250   8.635049   6.563232   5.321864   3.916520
    23  H    8.901753   7.847119   5.671172   4.567442   3.433664
    24  H    6.783812   5.631936   3.459965   2.607680   2.163290
                   11         12         13         14         15
    11  C    0.000000
    12  Cl   1.731049   0.000000
    13  C    1.403658   2.675105   0.000000
    14  C    2.429266   3.987477   1.394392   0.000000
    15  C    2.795584   4.523065   2.407430   1.389458   0.000000
    16  C    2.408310   4.032309   2.777450   2.414629   1.401282
    17  H    5.534974   5.050731   6.469658   7.228191   7.162936
    18  H    7.333892   6.696896   8.480452   9.260602   9.021343
    19  H    7.528300   6.996449   8.858235   9.584039   9.133245
    20  H    6.044343   5.816494   7.420134   8.033431   7.448842
    21  H    2.163228   2.794835   1.086372   2.147502   3.388364
    22  H    3.414560   4.829621   2.155621   1.088468   2.154194
    23  H    3.883692   5.610603   3.395181   2.151275   1.088226
    24  H    3.398225   4.911072   3.864934   3.392789   2.149963
                   16         17         18         19         20
    16  C    0.000000
    17  H    6.328255   0.000000
    18  H    7.951330   2.464041   0.000000
    19  H    7.848823   4.278639   2.482460   0.000000
    20  H    6.077839   4.946935   4.292624   2.469973   0.000000
    21  H    3.863622   6.825333   8.907962   9.444241   8.145998
    22  H    3.404516   8.069412  10.197348  10.628192   9.118411
    23  H    2.163284   7.961853   9.804658   9.893090   8.184559
    24  H    1.088112   6.584834   7.994546   7.698603   5.849333
                   21         22         23         24
    21  H    0.000000
    22  H    2.471905   0.000000
    23  H    4.287542   2.482827   0.000000
    24  H    4.950827   4.293381   2.474249   0.000000
 Symmetry turned off by external request.
 Stoichiometry    C12H8Cl2N2
 Framework group  C1[X(C12H8Cl2N2)]
 Deg. of freedom    66
 Full point group                 C1      NOp   1
 Rotational constants (GHZ):           0.9717245           0.2821770           0.2644337
 Leave Link  202 at Fri Mar  6 16:25:20 2026, MaxMem=  2415919104 cpu:               0.1 elap:               0.1
 (Enter /prod/precompiled/gaussian/16c2/g16/l301.exe)
 Standard basis: def2SVP (5D, 7F)
 Ernie: Thresh=  0.10000D-02 Tol=  0.10000D-05 Strict=F.
   272 basis functions,   480 primitive gaussians,   288 cartesian basis functions
    64 alpha electrons       64 beta electrons
       nuclear repulsion energy      1251.3575924316 Hartrees.
 IExCor= 4639 DFT=T Ex+Corr=wB97XD ExCW=0 ScaHFX=  1.000000
 ScaDFX=  1.000000  1.000000  1.000000  1.000000 ScalE2=  1.000000  1.000000
 IRadAn=      5 IRanWt=     -1 IRanGd=            0 ICorTp=0 IEmpDi=121
 HFx  wShort=  0.000000 wLong=  0.200000 cFull=  0.222036 cShort=  0.000000 cLong=  0.777964
 DFx  wShort=  0.000000 wLong=  0.200000 cFull=  0.000000 cShort=  0.000000 cLong=  1.000000
 NAtoms=   24 NActive=   24 NUniq=   24 SFac= 1.00D+00 NAtFMM=   60 NAOKFM=F Big=F
 Integral buffers will be    131072 words long.
 Raffenetti 2 integral format.
 Two-electron integral symmetry is turned off.
 R6Disp:  Grimme-D2 Dispersion energy=       -0.0147185313 Hartrees.
 Nuclear repulsion after empirical dispersion term =     1251.3428739003 Hartrees.
 Leave Link  301 at Fri Mar  6 16:25:21 2026, MaxMem=  2415919104 cpu:               0.1 elap:               0.1
 (Enter /prod/precompiled/gaussian/16c2/g16/l302.exe)
 NPDir=0 NMtPBC=     1 NCelOv=     1 NCel=       1 NClECP=     1 NCelD=      1
         NCelK=      1 NCelE2=     1 NClLst=     1 CellRange=     0.0.
 One-electron integrals computed using PRISM.
   1 Symmetry operations used in ECPInt.
 ECPInt:  NShTT=    7750 NPrTT=   30142 LenC2=    7132 LenP2D=   19454.
 LDataN:  DoStor=T MaxTD1= 4 Len=   56
 NBasis=   272 RedAO= T EigKep=  2.30D-04  NBF=   272
 NBsUse=   272 1.00D-06 EigRej= -1.00D+00 NBFU=   272
 Precomputing XC quadrature grid using
 IXCGrd= 4 IRadAn=           5 IRanWt=          -1 IRanGd=           0 AccXCQ= 0.00D+00.
 Generated NRdTot=       0 NPtTot=           0 NUsed=           0 NTot=          32
 NSgBfM=   286   286   286   286   286 MxSgAt=    24 MxSgA2=    24.
 Leave Link  302 at Fri Mar  6 16:25:21 2026, MaxMem=  2415919104 cpu:               0.8 elap:               0.3
 (Enter /prod/precompiled/gaussian/16c2/g16/l303.exe)
 DipDrv:  MaxL=1.
 Leave Link  303 at Fri Mar  6 16:25:21 2026, MaxMem=  2415919104 cpu:               0.1 elap:               0.1
 (Enter /prod/precompiled/gaussian/16c2/g16/l401.exe)
 ExpMin= 1.22D-01 ExpMax= 1.04D+04 ExpMxC= 1.57D+03 IAcc=3 IRadAn=         5 AccDes= 0.00D+00
 Harris functional with IExCor= 4639 and IRadAn=       5 diagonalized for initial guess.
 HarFok:  IExCor= 4639 AccDes= 0.00D+00 IRadAn=         5 IDoV= 1 UseB2=F ITyADJ=14
 ICtDFT=  3500011 ScaDFX=  1.000000  1.000000  1.000000  1.000000
 FoFCou: FMM=F IPFlag=           0 FMFlag=      100000 FMFlg1=           0
         NFxFlg=           0 DoJE=T BraDBF=F KetDBF=T FulRan=T
         wScrn=  0.000000 ICntrl=       500 IOpCl=  0 I1Cent=   200000004 NGrid=           0
         NMat0=    1 NMatS0=      1 NMatT0=    0 NMatD0=    1 NMtDS0=    0 NMtDT0=    0
 Symmetry not used in FoFCou.
 Harris En= -1450.75862167946    
 JPrj=0 DoOrth=F DoCkMO=F.
 Leave Link  401 at Fri Mar  6 16:25:21 2026, MaxMem=  2415919104 cpu:               4.6 elap:               0.5
 (Enter /prod/precompiled/gaussian/16c2/g16/l502.exe)
 Two-electron integral symmetry not used.
 Closed shell SCF:
 Using DIIS extrapolation, IDIIS=  1040.
 NGot=  2415919104 LenX=  2415746906 LenY=  2415663521
 Requested convergence on RMS density matrix=1.00D-08 within 200 cycles.
 Requested convergence on MAX density matrix=1.00D-06.
 Requested convergence on             energy=1.00D-06.
 No special actions if energy rises.
 Fock matrices will be formed incrementally for  20 cycles.
 Integral accuracy reduced to 1.0D-05 until final iterations.

 Cycle   1  Pass 0  IDiag  1:
 FoFJK:  IHMeth= 1 ICntrl=       0 DoSepK=T KAlg= 0 I1Cent=           0 FoldK=F
 IRaf=         1 NMat=       1 IRICut=       1 DoRegI=T DoRafI=F ISym2E= 0 IDoP0=0 IntGTp=1.
 FoFCou: FMM=F IPFlag=           0 FMFlag=      100000 FMFlg1=           0
         NFxFlg=           0 DoJE=T BraDBF=F KetDBF=F FulRan=T
         wScrn=  0.000000 ICntrl=       500 IOpCl=  0 I1Cent=           0 NGrid=           0
         NMat0=    1 NMatS0=      1 NMatT0=    0 NMatD0=    1 NMtDS0=    0 NMtDT0=    0
 Symmetry not used in FoFCou.
 E= -1490.40514340434    
 DIIS: error= 3.85D-02 at cycle   1 NSaved=   1.
 NSaved= 1 IEnMin= 1 EnMin= -1490.40514340434     IErMin= 1 ErrMin= 3.85D-02
 ErrMax= 3.85D-02  0.00D+00 EMaxC= 1.00D-01 BMatC= 8.26D-01 BMatP= 8.26D-01
 IDIUse=3 WtCom= 6.15D-01 WtEn= 3.85D-01
 Coeff-Com:  0.100D+01
 Coeff-En:   0.100D+01
 Coeff:      0.100D+01
 Gap=     0.256 Goal=   None    Shift=    0.000
 GapD=    0.256 DampG=1.000 DampE=0.500 DampFc=0.5000 IDamp=-1.
 Damping current iteration by 5.00D-01
 RMSDP=8.10D-03 MaxDP=2.74D-01              OVMax= 5.77D-01

 Cycle   2  Pass 0  IDiag  1:
 RMSU=  3.98D-03    CP:  9.72D-01
 E= -1490.47991537953     Delta-E=       -0.074771975182 Rises=F Damp=T
 DIIS: error= 1.28D-02 at cycle   2 NSaved=   2.
 NSaved= 2 IEnMin= 2 EnMin= -1490.47991537953     IErMin= 2 ErrMin= 1.28D-02
 ErrMax= 1.28D-02  0.00D+00 EMaxC= 1.00D-01 BMatC= 1.63D-01 BMatP= 8.26D-01
 IDIUse=3 WtCom= 8.72D-01 WtEn= 1.28D-01
 Coeff-Com:  0.756D-01 0.924D+00
 Coeff-En:   0.420D+00 0.580D+00
 Coeff:      0.120D+00 0.880D+00
 Gap=     0.143 Goal=   None    Shift=    0.000
 RMSDP=3.54D-03 MaxDP=1.13D-01 DE=-7.48D-02 OVMax= 4.61D-01

 Cycle   3  Pass 0  IDiag  1:
 RMSU=  3.46D-03    CP:  9.59D-01  8.33D-01
 E= -1490.75804223937     Delta-E=       -0.278126859846 Rises=F Damp=F
 DIIS: error= 2.77D-02 at cycle   3 NSaved=   3.
 NSaved= 3 IEnMin= 3 EnMin= -1490.75804223937     IErMin= 2 ErrMin= 1.28D-02
 ErrMax= 2.77D-02  0.00D+00 EMaxC= 1.00D-01 BMatC= 1.66D-01 BMatP= 1.63D-01
 IDIUse=3 WtCom= 7.23D-01 WtEn= 2.77D-01
 Coeff-Com: -0.137D+00 0.565D+00 0.571D+00
 Coeff-En:   0.000D+00 0.105D+00 0.895D+00
 Coeff:     -0.990D-01 0.438D+00 0.661D+00
 Gap=     0.205 Goal=   None    Shift=    0.000
 RMSDP=2.83D-03 MaxDP=1.20D-01 DE=-2.78D-01 OVMax= 2.74D-01

 Cycle   4  Pass 0  IDiag  1:
 RMSU=  1.94D-03    CP:  9.48D-01  1.12D+00  5.13D-01
 E= -1490.93692845393     Delta-E=       -0.178886214559 Rises=F Damp=F
 DIIS: error= 5.36D-03 at cycle   4 NSaved=   4.
 NSaved= 4 IEnMin= 4 EnMin= -1490.93692845393     IErMin= 4 ErrMin= 5.36D-03
 ErrMax= 5.36D-03  0.00D+00 EMaxC= 1.00D-01 BMatC= 1.96D-02 BMatP= 1.63D-01
 IDIUse=3 WtCom= 9.46D-01 WtEn= 5.36D-02
 Coeff-Com: -0.283D-01 0.569D-01 0.275D+00 0.696D+00
 Coeff-En:   0.000D+00 0.000D+00 0.672D-02 0.993D+00
 Coeff:     -0.267D-01 0.538D-01 0.261D+00 0.712D+00
 Gap=     0.222 Goal=   None    Shift=    0.000
 RMSDP=7.75D-04 MaxDP=3.13D-02 DE=-1.79D-01 OVMax= 5.79D-02

 Cycle   5  Pass 0  IDiag  1:
 RMSU=  4.96D-04    CP:  9.47D-01  1.09D+00  6.68D-01  8.80D-01
 E= -1490.95792772065     Delta-E=       -0.020999266722 Rises=F Damp=F
 DIIS: error= 1.86D-03 at cycle   5 NSaved=   5.
 NSaved= 5 IEnMin= 5 EnMin= -1490.95792772065     IErMin= 5 ErrMin= 1.86D-03
 ErrMax= 1.86D-03  0.00D+00 EMaxC= 1.00D-01 BMatC= 1.51D-03 BMatP= 1.96D-02
 IDIUse=3 WtCom= 9.81D-01 WtEn= 1.86D-02
 Coeff-Com:  0.223D-02-0.254D-01 0.533D-01 0.282D+00 0.688D+00
 Coeff-En:   0.000D+00 0.000D+00 0.000D+00 0.000D+00 0.100D+01
 Coeff:      0.219D-02-0.249D-01 0.523D-01 0.277D+00 0.693D+00
 Gap=     0.225 Goal=   None    Shift=    0.000
 RMSDP=2.56D-04 MaxDP=1.26D-02 DE=-2.10D-02 OVMax= 2.66D-02

 Cycle   6  Pass 0  IDiag  1:
 RMSU=  2.21D-04    CP:  9.46D-01  1.10D+00  6.66D-01  9.42D-01  1.03D+00
 E= -1490.95989877992     Delta-E=       -0.001971059269 Rises=F Damp=F
 DIIS: error= 1.18D-03 at cycle   6 NSaved=   6.
 NSaved= 6 IEnMin= 6 EnMin= -1490.95989877992     IErMin= 6 ErrMin= 1.18D-03
 ErrMax= 1.18D-03  0.00D+00 EMaxC= 1.00D-01 BMatC= 6.10D-04 BMatP= 1.51D-03
 IDIUse=3 WtCom= 9.88D-01 WtEn= 1.18D-02
 Coeff-Com:  0.129D-01-0.319D-01-0.375D-01-0.489D-01 0.367D+00 0.738D+00
 Coeff-En:   0.000D+00 0.000D+00 0.000D+00 0.000D+00 0.000D+00 0.100D+01
 Coeff:      0.127D-01-0.315D-01-0.370D-01-0.484D-01 0.363D+00 0.741D+00
 Gap=     0.229 Goal=   None    Shift=    0.000
 RMSDP=1.66D-04 MaxDP=6.37D-03 DE=-1.97D-03 OVMax= 1.50D-02

 Cycle   7  Pass 0  IDiag  1:
 RMSU=  1.11D-04    CP:  9.46D-01  1.10D+00  6.71D-01  9.77D-01  1.23D+00
                    CP:  1.05D+00
 E= -1490.96075467494     Delta-E=       -0.000855895014 Rises=F Damp=F
 DIIS: error= 3.02D-04 at cycle   7 NSaved=   7.
 NSaved= 7 IEnMin= 7 EnMin= -1490.96075467494     IErMin= 7 ErrMin= 3.02D-04
 ErrMax= 3.02D-04  0.00D+00 EMaxC= 1.00D-01 BMatC= 6.99D-05 BMatP= 6.10D-04
 IDIUse=3 WtCom= 9.97D-01 WtEn= 3.02D-03
 Coeff-Com:  0.523D-02-0.847D-02-0.168D-01-0.657D-01 0.452D-01 0.300D+00
 Coeff-Com:  0.740D+00
 Coeff-En:   0.000D+00 0.000D+00 0.000D+00 0.000D+00 0.000D+00 0.000D+00
 Coeff-En:   0.100D+01
 Coeff:      0.521D-02-0.845D-02-0.167D-01-0.655D-01 0.450D-01 0.299D+00
 Coeff:      0.741D+00
 Gap=     0.230 Goal=   None    Shift=    0.000
 RMSDP=7.46D-05 MaxDP=1.91D-03 DE=-8.56D-04 OVMax= 6.43D-03

 Cycle   8  Pass 0  IDiag  1:
 RMSU=  4.51D-05    CP:  9.45D-01  1.09D+00  6.75D-01  9.79D-01  1.30D+00
                    CP:  1.25D+00  1.12D+00
 E= -1490.96090895868     Delta-E=       -0.000154283744 Rises=F Damp=F
 DIIS: error= 1.52D-04 at cycle   8 NSaved=   8.
 NSaved= 8 IEnMin= 8 EnMin= -1490.96090895868     IErMin= 8 ErrMin= 1.52D-04
 ErrMax= 1.52D-04  0.00D+00 EMaxC= 1.00D-01 BMatC= 1.21D-05 BMatP= 6.99D-05
 IDIUse=3 WtCom= 9.98D-01 WtEn= 1.52D-03
 Coeff-Com: -0.113D-02 0.385D-02 0.445D-02-0.125D-01-0.712D-01-0.798D-01
 Coeff-Com:  0.263D+00 0.893D+00
 Coeff-En:   0.000D+00 0.000D+00 0.000D+00 0.000D+00 0.000D+00 0.000D+00
 Coeff-En:   0.000D+00 0.100D+01
 Coeff:     -0.113D-02 0.385D-02 0.445D-02-0.125D-01-0.711D-01-0.797D-01
 Coeff:      0.263D+00 0.894D+00
 Gap=     0.229 Goal=   None    Shift=    0.000
 RMSDP=4.87D-05 MaxDP=1.24D-03 DE=-1.54D-04 OVMax= 5.39D-03

 Cycle   9  Pass 0  IDiag  1:
 RMSU=  2.59D-05    CP:  9.45D-01  1.09D+00  6.76D-01  9.84D-01  1.33D+00
                    CP:  1.33D+00  1.37D+00  1.28D+00
 E= -1490.96095715304     Delta-E=       -0.000048194362 Rises=F Damp=F
 DIIS: error= 8.97D-05 at cycle   9 NSaved=   9.
 NSaved= 9 IEnMin= 9 EnMin= -1490.96095715304     IErMin= 9 ErrMin= 8.97D-05
 ErrMax= 8.97D-05  0.00D+00 EMaxC= 1.00D-01 BMatC= 2.44D-06 BMatP= 1.21D-05
 IDIUse=1 WtCom= 1.00D+00 WtEn= 0.00D+00
 Coeff-Com: -0.139D-02 0.270D-02 0.429D-02 0.818D-02-0.295D-01-0.851D-01
 Coeff-Com: -0.332D-01 0.326D+00 0.808D+00
 Coeff:     -0.139D-02 0.270D-02 0.429D-02 0.818D-02-0.295D-01-0.851D-01
 Coeff:     -0.332D-01 0.326D+00 0.808D+00
 Gap=     0.230 Goal=   None    Shift=    0.000
 RMSDP=2.51D-05 MaxDP=8.69D-04 DE=-4.82D-05 OVMax= 3.76D-03

 Cycle  10  Pass 0  IDiag  1:
 RMSU=  1.20D-05    CP:  9.45D-01  1.09D+00  6.75D-01  9.85D-01  1.34D+00
                    CP:  1.36D+00  1.48D+00  1.58D+00  1.35D+00
 E= -1490.96097246416     Delta-E=       -0.000015311116 Rises=F Damp=F
 DIIS: error= 5.89D-05 at cycle  10 NSaved=  10.
 NSaved=10 IEnMin=10 EnMin= -1490.96097246416     IErMin=10 ErrMin= 5.89D-05
 ErrMax= 5.89D-05  0.00D+00 EMaxC= 1.00D-01 BMatC= 7.06D-07 BMatP= 2.44D-06
 IDIUse=1 WtCom= 1.00D+00 WtEn= 0.00D+00
 Coeff-Com:  0.698D-05-0.190D-03-0.471D-03 0.381D-02 0.121D-01 0.352D-02
 Coeff-Com: -0.562D-01-0.156D+00 0.507D-01 0.114D+01
 Coeff:      0.698D-05-0.190D-03-0.471D-03 0.381D-02 0.121D-01 0.352D-02
 Coeff:     -0.562D-01-0.156D+00 0.507D-01 0.114D+01
 Gap=     0.230 Goal=   None    Shift=    0.000
 RMSDP=2.33D-05 MaxDP=9.31D-04 DE=-1.53D-05 OVMax= 3.92D-03

 Cycle  11  Pass 0  IDiag  1:
 RMSU=  6.83D-06    CP:  9.45D-01  1.10D+00  6.75D-01  9.86D-01  1.34D+00
                    CP:  1.38D+00  1.55D+00  1.80D+00  1.88D+00  1.82D+00
 E= -1490.96098201197     Delta-E=       -0.000009547812 Rises=F Damp=F
 DIIS: error= 3.96D-05 at cycle  11 NSaved=  11.
 NSaved=11 IEnMin=11 EnMin= -1490.96098201197     IErMin=11 ErrMin= 3.96D-05
 ErrMax= 3.96D-05  0.00D+00 EMaxC= 1.00D-01 BMatC= 3.75D-07 BMatP= 7.06D-07
 IDIUse=1 WtCom= 1.00D+00 WtEn= 0.00D+00
 Coeff-Com:  0.624D-03-0.126D-02-0.158D-02-0.192D-02 0.153D-01 0.361D-01
 Coeff-Com: -0.907D-02-0.191D+00-0.354D+00 0.371D+00 0.114D+01
 Coeff:      0.624D-03-0.126D-02-0.158D-02-0.192D-02 0.153D-01 0.361D-01
 Coeff:     -0.907D-02-0.191D+00-0.354D+00 0.371D+00 0.114D+01
 Gap=     0.230 Goal=   None    Shift=    0.000
 RMSDP=2.32D-05 MaxDP=9.47D-04 DE=-9.55D-06 OVMax= 3.93D-03

 Cycle  12  Pass 0  IDiag  1:
 RMSU=  4.53D-06    CP:  9.45D-01  1.10D+00  6.74D-01  9.87D-01  1.35D+00
                    CP:  1.39D+00  1.61D+00  2.04D+00  2.38D+00  2.80D+00
                    CP:  1.87D+00
 E= -1490.96098770720     Delta-E=       -0.000005695226 Rises=F Damp=F
 DIIS: error= 1.90D-05 at cycle  12 NSaved=  12.
 NSaved=12 IEnMin=12 EnMin= -1490.96098770720     IErMin=12 ErrMin= 1.90D-05
 ErrMax= 1.90D-05  0.00D+00 EMaxC= 1.00D-01 BMatC= 1.58D-07 BMatP= 3.75D-07
 IDIUse=1 WtCom= 1.00D+00 WtEn= 0.00D+00
 Coeff-Com:  0.202D-03-0.397D-03 0.341D-03-0.169D-02-0.313D-02 0.557D-02
 Coeff-Com:  0.132D-01 0.258D-01-0.909D-01-0.398D+00 0.252D+00 0.120D+01
 Coeff:      0.202D-03-0.397D-03 0.341D-03-0.169D-02-0.313D-02 0.557D-02
 Coeff:      0.132D-01 0.258D-01-0.909D-01-0.398D+00 0.252D+00 0.120D+01
 Gap=     0.230 Goal=   None    Shift=    0.000
 RMSDP=1.69D-05 MaxDP=6.93D-04 DE=-5.70D-06 OVMax= 2.83D-03

 Cycle  13  Pass 0  IDiag  1:
 RMSU=  6.41D-06    CP:  9.45D-01  1.10D+00  6.74D-01  9.87D-01  1.35D+00
                    CP:  1.40D+00  1.65D+00  2.20D+00  2.72D+00  3.00D+00
                    CP:  2.78D+00  1.60D+00
 E= -1490.96098973641     Delta-E=       -0.000002029212 Rises=F Damp=F
 DIIS: error= 8.48D-06 at cycle  13 NSaved=  13.
 NSaved=13 IEnMin=13 EnMin= -1490.96098973641     IErMin=13 ErrMin= 8.48D-06
 ErrMax= 8.48D-06  0.00D+00 EMaxC= 1.00D-01 BMatC= 3.07D-08 BMatP= 1.58D-07
 IDIUse=1 WtCom= 1.00D+00 WtEn= 0.00D+00
 Coeff-Com: -0.314D-04 0.548D-04 0.480D-03-0.119D-03-0.336D-02-0.477D-02
 Coeff-Com:  0.274D-02 0.450D-01 0.545D-01-0.190D+00-0.201D+00 0.336D+00
 Coeff-Com:  0.960D+00
 Coeff:     -0.314D-04 0.548D-04 0.480D-03-0.119D-03-0.336D-02-0.477D-02
 Coeff:      0.274D-02 0.450D-01 0.545D-01-0.190D+00-0.201D+00 0.336D+00
 Coeff:      0.960D+00
 Gap=     0.230 Goal=   None    Shift=    0.000
 RMSDP=6.46D-06 MaxDP=2.60D-04 DE=-2.03D-06 OVMax= 1.06D-03

 Initial convergence to 1.0D-05 achieved.  Increase integral accuracy.
 Cycle  14  Pass 1  IDiag  1:
 E= -1490.96098480807     Delta-E=        0.000004928336 Rises=F Damp=F
 DIIS: error= 8.01D-05 at cycle   1 NSaved=   1.
 NSaved= 1 IEnMin= 1 EnMin= -1490.96098480807     IErMin= 1 ErrMin= 8.01D-05
 ErrMax= 8.01D-05  0.00D+00 EMaxC= 1.00D-01 BMatC= 9.94D-07 BMatP= 9.94D-07
 IDIUse=1 WtCom= 1.00D+00 WtEn= 0.00D+00
 Coeff-Com:  0.100D+01
 Coeff:      0.100D+01
 Gap=     0.230 Goal=   None    Shift=    0.000
 RMSDP=6.46D-06 MaxDP=2.60D-04 DE= 4.93D-06 OVMax= 1.42D-04

 Cycle  15  Pass 1  IDiag  1:
 RMSU=  1.02D-04    CP:  1.00D+00
 E= -1490.96098577628     Delta-E=       -0.000000968210 Rises=F Damp=F
 DIIS: error= 3.47D-06 at cycle   2 NSaved=   2.
 NSaved= 2 IEnMin= 2 EnMin= -1490.96098577628     IErMin= 2 ErrMin= 3.47D-06
 ErrMax= 3.47D-06  0.00D+00 EMaxC= 1.00D-01 BMatC= 1.63D-08 BMatP= 9.94D-07
 IDIUse=1 WtCom= 1.00D+00 WtEn= 0.00D+00
 Coeff-Com: -0.284D-01 0.103D+01
 Coeff:     -0.284D-01 0.103D+01
 Gap=     0.230 Goal=   None    Shift=    0.000
 RMSDP=5.61D-06 MaxDP=1.30D-04 DE=-9.68D-07 OVMax= 9.53D-05

 Cycle  16  Pass 1  IDiag  1:
 RMSU=  2.01D-06    CP:  1.00D+00  1.05D+00
 E= -1490.96098579552     Delta-E=       -0.000000019234 Rises=F Damp=F
 DIIS: error= 4.04D-06 at cycle   3 NSaved=   3.
 NSaved= 3 IEnMin= 3 EnMin= -1490.96098579552     IErMin= 2 ErrMin= 3.47D-06
 ErrMax= 4.04D-06  0.00D+00 EMaxC= 1.00D-01 BMatC= 1.03D-08 BMatP= 1.63D-08
 IDIUse=1 WtCom= 1.00D+00 WtEn= 0.00D+00
 Coeff-Com: -0.262D-01 0.456D+00 0.570D+00
 Coeff:     -0.262D-01 0.456D+00 0.570D+00
 Gap=     0.230 Goal=   None    Shift=    0.000
 RMSDP=6.78D-07 MaxDP=1.72D-05 DE=-1.92D-08 OVMax= 4.14D-05

 Cycle  17  Pass 1  IDiag  1:
 RMSU=  6.38D-07    CP:  1.00D+00  1.05D+00  9.48D-01
 E= -1490.96098580740     Delta-E=       -0.000000011878 Rises=F Damp=F
 DIIS: error= 1.14D-06 at cycle   4 NSaved=   4.
 NSaved= 4 IEnMin= 4 EnMin= -1490.96098580740     IErMin= 4 ErrMin= 1.14D-06
 ErrMax= 1.14D-06  0.00D+00 EMaxC= 1.00D-01 BMatC= 8.67D-10 BMatP= 1.03D-08
 IDIUse=1 WtCom= 1.00D+00 WtEn= 0.00D+00
 Coeff-Com: -0.678D-02 0.648D-01 0.197D+00 0.745D+00
 Coeff:     -0.678D-02 0.648D-01 0.197D+00 0.745D+00
 Gap=     0.230 Goal=   None    Shift=    0.000
 RMSDP=3.22D-07 MaxDP=1.00D-05 DE=-1.19D-08 OVMax= 4.24D-05

 Cycle  18  Pass 1  IDiag  1:
 RMSU=  2.67D-07    CP:  1.00D+00  1.05D+00  1.02D+00  1.14D+00
 E= -1490.96098581015     Delta-E=       -0.000000002757 Rises=F Damp=F
 DIIS: error= 8.37D-07 at cycle   5 NSaved=   5.
 NSaved= 5 IEnMin= 5 EnMin= -1490.96098581015     IErMin= 5 ErrMin= 8.37D-07
 ErrMax= 8.37D-07  0.00D+00 EMaxC= 1.00D-01 BMatC= 3.61D-10 BMatP= 8.67D-10
 IDIUse=1 WtCom= 1.00D+00 WtEn= 0.00D+00
 Coeff-Com:  0.252D-02-0.690D-01-0.438D-01 0.360D+00 0.750D+00
 Coeff:      0.252D-02-0.690D-01-0.438D-01 0.360D+00 0.750D+00
 Gap=     0.230 Goal=   None    Shift=    0.000
 RMSDP=2.55D-07 MaxDP=9.62D-06 DE=-2.76D-09 OVMax= 4.05D-05

 Cycle  19  Pass 1  IDiag  1:
 RMSU=  1.65D-07    CP:  1.00D+00  1.05D+00  1.06D+00  1.34D+00  1.47D+00
 E= -1490.96098581193     Delta-E=       -0.000000001783 Rises=F Damp=F
 DIIS: error= 6.90D-07 at cycle   6 NSaved=   6.
 NSaved= 6 IEnMin= 6 EnMin= -1490.96098581193     IErMin= 6 ErrMin= 6.90D-07
 ErrMax= 6.90D-07  0.00D+00 EMaxC= 1.00D-01 BMatC= 1.19D-10 BMatP= 3.61D-10
 IDIUse=1 WtCom= 1.00D+00 WtEn= 0.00D+00
 Coeff-Com:  0.283D-02-0.459D-01-0.788D-01-0.501D-01 0.285D+00 0.887D+00
 Coeff:      0.283D-02-0.459D-01-0.788D-01-0.501D-01 0.285D+00 0.887D+00
 Gap=     0.230 Goal=   None    Shift=    0.000
 RMSDP=2.37D-07 MaxDP=9.53D-06 DE=-1.78D-09 OVMax= 3.93D-05

 Cycle  20  Pass 1  IDiag  1:
 RMSU=  7.57D-08    CP:  1.00D+00  1.05D+00  1.09D+00  1.51D+00  2.05D+00
                    CP:  1.69D+00
 E= -1490.96098581313     Delta-E=       -0.000000001197 Rises=F Damp=F
 DIIS: error= 5.05D-07 at cycle   7 NSaved=   7.
 NSaved= 7 IEnMin= 7 EnMin= -1490.96098581313     IErMin= 7 ErrMin= 5.05D-07
 ErrMax= 5.05D-07  0.00D+00 EMaxC= 1.00D-01 BMatC= 5.47D-11 BMatP= 1.19D-10
 IDIUse=1 WtCom= 1.00D+00 WtEn= 0.00D+00
 Coeff-Com: -0.637D-03 0.275D-01-0.906D-03-0.217D+00-0.400D+00 0.252D+00
 Coeff-Com:  0.134D+01
 Coeff:     -0.637D-03 0.275D-01-0.906D-03-0.217D+00-0.400D+00 0.252D+00
 Coeff:      0.134D+01
 Gap=     0.230 Goal=   None    Shift=    0.000
 RMSDP=3.28D-07 MaxDP=1.34D-05 DE=-1.20D-09 OVMax= 5.53D-05

 Cycle  21  Pass 1  IDiag  1:
 RMSU=  5.61D-08    CP:  1.00D+00  1.05D+00  1.12D+00  1.70D+00  2.86D+00
                    CP:  2.81D+00  1.87D+00
 E= -1490.96098581414     Delta-E=       -0.000000001005 Rises=F Damp=F
 DIIS: error= 2.42D-07 at cycle   8 NSaved=   8.
 NSaved= 8 IEnMin= 8 EnMin= -1490.96098581414     IErMin= 8 ErrMin= 2.42D-07
 ErrMax= 2.42D-07  0.00D+00 EMaxC= 1.00D-01 BMatC= 1.69D-11 BMatP= 5.47D-11
 IDIUse=1 WtCom= 1.00D+00 WtEn= 0.00D+00
 Coeff-Com: -0.145D-02 0.301D-01 0.315D-01-0.576D-01-0.283D+00-0.258D+00
 Coeff-Com:  0.538D+00 0.100D+01
 Coeff:     -0.145D-02 0.301D-01 0.315D-01-0.576D-01-0.283D+00-0.258D+00
 Coeff:      0.538D+00 0.100D+01
 Gap=     0.230 Goal=   None    Shift=    0.000
 RMSDP=1.91D-07 MaxDP=7.87D-06 DE=-1.01D-09 OVMax= 3.21D-05

 Cycle  22  Pass 1  IDiag  1:
 RMSU=  1.17D-07    CP:  1.00D+00  1.05D+00  1.13D+00  1.80D+00  3.00D+00
                    CP:  3.00D+00  2.62D+00  1.57D+00
 E= -1490.96098581440     Delta-E=       -0.000000000264 Rises=F Damp=F
 DIIS: error= 9.08D-08 at cycle   9 NSaved=   9.
 NSaved= 9 IEnMin= 9 EnMin= -1490.96098581440     IErMin= 9 ErrMin= 9.08D-08
 ErrMax= 9.08D-08  0.00D+00 EMaxC= 1.00D-01 BMatC= 2.82D-12 BMatP= 1.69D-11
 IDIUse=1 WtCom= 1.00D+00 WtEn= 0.00D+00
 Coeff-Com: -0.150D-03-0.106D-02 0.613D-02 0.492D-01 0.486D-01-0.112D+00
 Coeff-Com: -0.241D+00 0.166D+00 0.108D+01
 Coeff:     -0.150D-03-0.106D-02 0.613D-02 0.492D-01 0.486D-01-0.112D+00
 Coeff:     -0.241D+00 0.166D+00 0.108D+01
 Gap=     0.230 Goal=   None    Shift=    0.000
 RMSDP=7.11D-08 MaxDP=2.86D-06 DE=-2.64D-10 OVMax= 1.17D-05

 Cycle  23  Pass 1  IDiag  1:
 RMSU=  1.22D-08    CP:  1.00D+00  1.05D+00  1.14D+00  1.83D+00  3.00D+00
                    CP:  3.00D+00  2.94D+00  1.97D+00  1.49D+00
 E= -1490.96098581444     Delta-E=       -0.000000000037 Rises=F Damp=F
 DIIS: error= 4.39D-08 at cycle  10 NSaved=  10.
 NSaved=10 IEnMin=10 EnMin= -1490.96098581444     IErMin=10 ErrMin= 4.39D-08
 ErrMax= 4.39D-08  0.00D+00 EMaxC= 1.00D-01 BMatC= 6.18D-13 BMatP= 2.82D-12
 IDIUse=1 WtCom= 1.00D+00 WtEn= 0.00D+00
 Coeff-Com:  0.262D-03-0.670D-02-0.523D-02 0.263D-01 0.722D-01 0.210D-01
 Coeff-Com: -0.180D+00-0.162D+00 0.312D+00 0.923D+00
 Coeff:      0.262D-03-0.670D-02-0.523D-02 0.263D-01 0.722D-01 0.210D-01
 Coeff:     -0.180D+00-0.162D+00 0.312D+00 0.923D+00
 Gap=     0.230 Goal=   None    Shift=    0.000
 RMSDP=2.29D-08 MaxDP=8.56D-07 DE=-3.68D-11 OVMax= 3.57D-06

 Cycle  24  Pass 1  IDiag  1:
 RMSU=  7.12D-09    CP:  1.00D+00  1.05D+00  1.14D+00  1.84D+00  3.00D+00
                    CP:  3.00D+00  3.00D+00  2.10D+00  1.64D+00  1.30D+00
 E= -1490.96098581442     Delta-E=        0.000000000019 Rises=F Damp=F
 DIIS: error= 1.47D-08 at cycle  11 NSaved=  11.
 NSaved=11 IEnMin=10 EnMin= -1490.96098581444     IErMin=11 ErrMin= 1.47D-08
 ErrMax= 1.47D-08  0.00D+00 EMaxC= 1.00D-01 BMatC= 1.20D-13 BMatP= 6.18D-13
 IDIUse=1 WtCom= 1.00D+00 WtEn= 0.00D+00
 Coeff-Com:  0.110D-03-0.191D-02-0.279D-02-0.653D-03 0.134D-01 0.270D-01
 Coeff-Com: -0.900D-02-0.811D-01-0.112D+00 0.309D+00 0.858D+00
 Coeff:      0.110D-03-0.191D-02-0.279D-02-0.653D-03 0.134D-01 0.270D-01
 Coeff:     -0.900D-02-0.811D-01-0.112D+00 0.309D+00 0.858D+00
 Gap=     0.230 Goal=   None    Shift=    0.000
 RMSDP=5.95D-09 MaxDP=1.61D-07 DE= 1.91D-11 OVMax= 8.56D-07

 SCF Done:  E(RwB97XD) =  -1490.96098581     A.U. after   24 cycles
            NFock= 24  Conv=0.60D-08     -V/T= 2.0054
 KE= 1.482928429361D+03 PE=-6.013081048815D+03 EE= 1.787848759740D+03
 Leave Link  502 at Fri Mar  6 16:25:44 2026, MaxMem=  2415919104 cpu:             226.6 elap:              22.8
 (Enter /prod/precompiled/gaussian/16c2/g16/l508.exe)
 QCSCF skips out because SCF is already converged.
 Leave Link  508 at Fri Mar  6 16:25:44 2026, MaxMem=  2415919104 cpu:               0.1 elap:               0.1
 (Enter /prod/precompiled/gaussian/16c2/g16/l801.exe)
 DoSCS=F DFT=T ScalE2(SS,OS)=  1.000000  1.000000
 Range of M.O.s used for correlation:     1   272
 NBasis=   272 NAE=    64 NBE=    64 NFC=     0 NFV=     0
 NROrb=    272 NOA=    64 NOB=    64 NVA=   208 NVB=   208

 **** Warning!!: The largest alpha MO coefficient is  0.13673579D+02

 Leave Link  801 at Fri Mar  6 16:25:44 2026, MaxMem=  2415919104 cpu:               0.1 elap:               0.1
 (Enter /prod/precompiled/gaussian/16c2/g16/l1101.exe)
 Using compressed storage, NAtomX=    24.
 Will process     25 centers per pass.
   1 Symmetry operations used in ECPInt.
 ECPInt:  NShTT=    7750 NPrTT=   30142 LenC2=    7132 LenP2D=   19454.
 LDataN:  DoStor=T MaxTD1= 5 Len=  102
 R6Disp: Adding Grimme-D2 dispersion energy 1st derivatives to the gradient.
 Leave Link 1101 at Fri Mar  6 16:25:45 2026, MaxMem=  2415919104 cpu:               1.8 elap:               0.3
 (Enter /prod/precompiled/gaussian/16c2/g16/l1102.exe)
 Symmetrizing basis deriv contribution to polar:
 IMax=3 JMax=2 DiffMx= 0.00D+00
 Leave Link 1102 at Fri Mar  6 16:25:45 2026, MaxMem=  2415919104 cpu:               0.2 elap:               0.1
 (Enter /prod/precompiled/gaussian/16c2/g16/l1110.exe)
 Forming Gx(P) for the SCF density, NAtomX=    24.
 Integral derivatives from FoFJK, PRISM(SPDF).
 Do as many integral derivatives as possible in FoFJK.
 G2DrvN: MDV=    2415916544.
 G2DrvN: will do    25 centers at a time, making    1 passes.
 Calling FoFCou, ICntrl=  3107 FMM=F I1Cent=   0 AccDes= 0.00D+00.
 FoFJK:  IHMeth= 1 ICntrl=    3107 DoSepK=T KAlg= 0 I1Cent=           0 FoldK=F
 IRaf=         1 NMat=       1 IRICut=       1 DoRegI=T DoRafI=F ISym2E= 0 IDoP0=0 IntGTp=1.
 FoFCou: FMM=F IPFlag=           0 FMFlag=      100000 FMFlg1=           0
         NFxFlg=           0 DoJE=F BraDBF=F KetDBF=F FulRan=T
         wScrn=  0.000000 ICntrl=      3507 IOpCl=  0 I1Cent=           0 NGrid=           0
         NMat0=    1 NMatS0=      1 NMatT0=    0 NMatD0=    1 NMtDS0=    0 NMtDT0=    0
 Symmetry not used in FoFCou.
 End of G2Drv F.D. properties file   721 does not exist.
 End of G2Drv F.D. properties file   722 does not exist.
 End of G2Drv F.D. properties file   788 does not exist.
 Leave Link 1110 at Fri Mar  6 16:26:02 2026, MaxMem=  2415919104 cpu:             200.5 elap:              17.5
 (Enter /prod/precompiled/gaussian/16c2/g16/l1002.exe)
 Minotr:  Closed shell wavefunction.
          IDoAtm=111111111111111111111111
          Direct CPHF calculation.
          Differentiating once with respect to electric field.
                with respect to dipole field.
          Differentiating once with respect to nuclear coordinates.
          Requested convergence is 1.0D-08 RMS, and 1.0D-07 maximum.
          Secondary convergence is 1.0D-12 RMS, and 1.0D-12 maximum.
          NewPWx=T KeepS1=F KeepF1=F KeepIn=T MapXYZ=F SortEE=F KeepMc=T.
         7195 words used for storage of precomputed grid.
 Keep R1 ints in memory in canonical form, NReq=1402150885.
 FoFCou: FMM=F IPFlag=           0 FMFlag=           0 FMFlg1=           0
         NFxFlg=           0 DoJE=F BraDBF=F KetDBF=F FulRan=T
         wScrn=  0.000000 ICntrl=       600 IOpCl=  0 I1Cent=           0 NGrid=           0
         NMat0=    1 NMatS0=  37128 NMatT0=    0 NMatD0=    1 NMtDS0=    0 NMtDT0=    0
 Symmetry not used in FoFCou.
 Two-electron integral symmetry not used.
          MDV=    2415919104 using IRadAn=       1.
          Solving linear equations simultaneously, MaxMat=       0.
          There are    75 degrees of freedom in the 1st order CPHF.  IDoFFX=6 NUNeed=     3.
     72 vectors produced by pass  0 Test12= 1.77D-14 1.33D-09 XBig12= 1.51D+02 5.31D+00.
 AX will form    72 AO Fock derivatives at one time.
     72 vectors produced by pass  1 Test12= 1.77D-14 1.33D-09 XBig12= 1.36D+01 6.71D-01.
     72 vectors produced by pass  2 Test12= 1.77D-14 1.33D-09 XBig12= 6.43D-01 1.08D-01.
     72 vectors produced by pass  3 Test12= 1.77D-14 1.33D-09 XBig12= 1.39D-02 1.38D-02.
     72 vectors produced by pass  4 Test12= 1.77D-14 1.33D-09 XBig12= 1.34D-04 1.06D-03.
     72 vectors produced by pass  5 Test12= 1.77D-14 1.33D-09 XBig12= 8.06D-07 9.48D-05.
     68 vectors produced by pass  6 Test12= 1.77D-14 1.33D-09 XBig12= 4.84D-09 7.11D-06.
     43 vectors produced by pass  7 Test12= 1.77D-14 1.33D-09 XBig12= 2.62D-11 4.64D-07.
      3 vectors produced by pass  8 Test12= 1.77D-14 1.33D-09 XBig12= 1.26D-13 3.39D-08.
      2 vectors produced by pass  9 Test12= 1.77D-14 1.33D-09 XBig12= 6.20D-16 2.34D-09.
 InvSVY:  IOpt=1 It=  1 EMax= 5.33D-15
 Solved reduced A of dimension   548 with    75 vectors.
 FullF1:  Do perturbations      1 to       3.
 Isotropic polarizability for W=    0.000000      171.72 Bohr**3.
 End of Minotr F.D. properties file   721 does not exist.
 End of Minotr F.D. properties file   722 does not exist.
 End of Minotr F.D. properties file   788 does not exist.
 Leave Link 1002 at Fri Mar  6 16:26:33 2026, MaxMem=  2415919104 cpu:             299.2 elap:              30.7
 (Enter /prod/precompiled/gaussian/16c2/g16/l601.exe)
 Copying SCF densities to generalized density rwf, IOpCl= 0 IROHF=0.

 **********************************************************************

            Population analysis using the SCF Density.

 **********************************************************************

 Alpha  occ. eigenvalues -- -101.68210-101.67432 -14.53762 -14.50113 -10.38742
 Alpha  occ. eigenvalues --  -10.37903 -10.36158 -10.35260 -10.32906 -10.32685
 Alpha  occ. eigenvalues --  -10.32600 -10.32235 -10.31584 -10.31298 -10.31158
 Alpha  occ. eigenvalues --  -10.30461  -9.58968  -9.58229  -7.34368  -7.33624
 Alpha  occ. eigenvalues --   -7.33390  -7.33313  -7.32621  -7.32615  -1.14056
 Alpha  occ. eigenvalues --   -1.00100  -0.99793  -0.94651  -0.93825  -0.90810
 Alpha  occ. eigenvalues --   -0.86481  -0.83687  -0.82898  -0.78307  -0.73202
 Alpha  occ. eigenvalues --   -0.71733  -0.70742  -0.66643  -0.64513  -0.60286
 Alpha  occ. eigenvalues --   -0.58844  -0.58269  -0.57630  -0.54737  -0.53796
 Alpha  occ. eigenvalues --   -0.53090  -0.52624  -0.51589  -0.51491  -0.48558
 Alpha  occ. eigenvalues --   -0.47387  -0.47058  -0.46023  -0.45085  -0.44587
 Alpha  occ. eigenvalues --   -0.43835  -0.41155  -0.40385  -0.38781  -0.35993
 Alpha  occ. eigenvalues --   -0.34360  -0.33012  -0.32295  -0.25903
 Alpha virt. eigenvalues --   -0.02933   0.03729   0.04901   0.05893   0.08958
 Alpha virt. eigenvalues --    0.11124   0.11397   0.15659   0.16800   0.17828
 Alpha virt. eigenvalues --    0.18332   0.21159   0.21479   0.21899   0.22471
 Alpha virt. eigenvalues --    0.22670   0.23252   0.24325   0.27556   0.33318
 Alpha virt. eigenvalues --    0.34068   0.34672   0.35214   0.35322   0.36512
 Alpha virt. eigenvalues --    0.37161   0.38496   0.39290   0.41838   0.45023
 Alpha virt. eigenvalues --    0.45491   0.46998   0.47328   0.49622   0.50612
 Alpha virt. eigenvalues --    0.51844   0.52002   0.52567   0.53595   0.53734
 Alpha virt. eigenvalues --    0.54846   0.55396   0.56135   0.57647   0.59471
 Alpha virt. eigenvalues --    0.59935   0.60289   0.60729   0.61637   0.62434
 Alpha virt. eigenvalues --    0.62984   0.65816   0.66805   0.67860   0.68031
 Alpha virt. eigenvalues --    0.68991   0.69949   0.71459   0.72114   0.72144
 Alpha virt. eigenvalues --    0.73554   0.74005   0.74068   0.75610   0.75725
 Alpha virt. eigenvalues --    0.77591   0.77898   0.78675   0.78898   0.79498
 Alpha virt. eigenvalues --    0.79639   0.80707   0.80946   0.82268   0.83123
 Alpha virt. eigenvalues --    0.83943   0.85154   0.86064   0.87479   0.88566
 Alpha virt. eigenvalues --    0.89149   0.89603   0.90475   0.91033   0.91998
 Alpha virt. eigenvalues --    0.93446   0.94776   0.95417   0.98770   1.00650
 Alpha virt. eigenvalues --    1.01759   1.02976   1.05158   1.07075   1.08623
 Alpha virt. eigenvalues --    1.11555   1.13644   1.15139   1.18269   1.19247
 Alpha virt. eigenvalues --    1.22889   1.24322   1.25517   1.27795   1.28664
 Alpha virt. eigenvalues --    1.31180   1.31506   1.32143   1.32802   1.34285
 Alpha virt. eigenvalues --    1.34710   1.35558   1.36226   1.37276   1.37810
 Alpha virt. eigenvalues --    1.39193   1.43428   1.45680   1.48116   1.49504
 Alpha virt. eigenvalues --    1.57201   1.59009   1.59979   1.60513   1.63154
 Alpha virt. eigenvalues --    1.67287   1.73193   1.75062   1.77245   1.77992
 Alpha virt. eigenvalues --    1.78603   1.79308   1.80683   1.82993   1.83341
 Alpha virt. eigenvalues --    1.83534   1.84369   1.85148   1.85813   1.86830
 Alpha virt. eigenvalues --    1.88779   1.89321   1.90795   1.91934   1.95582
 Alpha virt. eigenvalues --    1.97306   1.99853   2.00776   2.01384   2.01831
 Alpha virt. eigenvalues --    2.03285   2.03857   2.07264   2.08050   2.11202
 Alpha virt. eigenvalues --    2.12644   2.13663   2.14021   2.17035   2.18306
 Alpha virt. eigenvalues --    2.21332   2.22452   2.23496   2.23794   2.29203
 Alpha virt. eigenvalues --    2.29998   2.31909   2.32548   2.33287   2.34595
 Alpha virt. eigenvalues --    2.35841   2.37271   2.37513   2.37930   2.39507
 Alpha virt. eigenvalues --    2.41239   2.46273   2.50017   2.53149   2.58103
 Alpha virt. eigenvalues --    2.63855   2.66642   2.67007   2.68261   2.68377
 Alpha virt. eigenvalues --    2.69573   2.71300   2.74222   2.77745   2.80560
 Alpha virt. eigenvalues --    2.81662   2.84527   2.87681   2.89526   2.90673
 Alpha virt. eigenvalues --    2.92233   2.95232   3.03940   3.08255   3.11333
 Alpha virt. eigenvalues --    3.14937   3.16411   3.21999   3.30494   3.42232
 Alpha virt. eigenvalues --    3.57077   3.65051   3.82398
          Condensed to atoms (all electrons):
               1          2          3          4          5          6
     1  C    5.263520   0.154897  -0.054863   0.088257  -0.136710   0.093772
     2  C    0.154897   5.341638   0.251385   0.332280   0.088314  -0.150272
     3  Cl  -0.054863   0.251385  16.963179  -0.061504   0.003168   0.000645
     4  C    0.088257   0.332280  -0.061504   4.973240   0.313205   0.072426
     5  C   -0.136710   0.088314   0.003168   0.313205   5.044153   0.273070
     6  C    0.093772  -0.150272   0.000645   0.072426   0.273070   5.089913
     7  C    0.332582   0.049866   0.001792  -0.103961   0.075361   0.299702
     8  N    0.361367  -0.063398  -0.006603   0.003308  -0.000365   0.006664
     9  N   -0.106136  -0.011324  -0.006057  -0.000455   0.000067  -0.000406
    10  C    0.001886  -0.002532  -0.025362   0.000138  -0.000004   0.000005
    11  C    0.003135   0.000632  -0.005301   0.000039  -0.000001   0.000002
    12  Cl   0.000523   0.003345  -0.011495  -0.000644   0.000008  -0.000007
    13  C   -0.000061  -0.000047  -0.001602  -0.000001   0.000000  -0.000000
    14  C   -0.000001   0.000001   0.000279   0.000000  -0.000000   0.000000
    15  C    0.000006  -0.000003  -0.000932  -0.000000   0.000000   0.000000
    16  C   -0.000004   0.000352   0.004430  -0.000013  -0.000000  -0.000000
    17  H    0.015008  -0.065766   0.003397   0.440611  -0.056273   0.013454
    18  H   -0.001717   0.013710  -0.000137  -0.060039   0.445903  -0.064455
    19  H    0.012889  -0.001634   0.000007   0.012803  -0.065986   0.448428
    20  H   -0.066039   0.021111  -0.000039  -0.003071   0.013520  -0.068711
    21  H    0.000000   0.000000   0.000010   0.000000  -0.000000   0.000000
    22  H    0.000000   0.000000  -0.000003  -0.000000   0.000000  -0.000000
    23  H   -0.000000   0.000000  -0.000010   0.000000  -0.000000  -0.000000
    24  H    0.000056  -0.000018   0.000165   0.000000  -0.000000   0.000000
               7          8          9         10         11         12
     1  C    0.332582   0.361367  -0.106136   0.001886   0.003135   0.000523
     2  C    0.049866  -0.063398  -0.011324  -0.002532   0.000632   0.003345
     3  Cl   0.001792  -0.006603  -0.006057  -0.025362  -0.005301  -0.011495
     4  C   -0.103961   0.003308  -0.000455   0.000138   0.000039  -0.000644
     5  C    0.075361  -0.000365   0.000067  -0.000004  -0.000001   0.000008
     6  C    0.299702   0.006664  -0.000406   0.000005   0.000002  -0.000007
     7  C    5.037582  -0.076954   0.010838  -0.000383  -0.000067  -0.000066
     8  N   -0.076954   6.508612   0.320558  -0.039447   0.002167  -0.001471
     9  N    0.010838   0.320558   6.743366   0.351851  -0.090345   0.003759
    10  C   -0.000383  -0.039447   0.351851   5.079712   0.185398  -0.060159
    11  C   -0.000067   0.002167  -0.090345   0.185398   5.411670   0.242469
    12  Cl  -0.000066  -0.001471   0.003759  -0.060159   0.242469  16.951133
    13  C    0.000000  -0.000005   0.006352   0.089904   0.304515  -0.052463
    14  C    0.000000  -0.000005  -0.000103  -0.138237   0.085244   0.002661
    15  C   -0.000000   0.000028   0.006841   0.097222  -0.156169   0.000724
    16  C    0.000001   0.001671  -0.055336   0.319859   0.075846   0.001486
    17  H   -0.002130  -0.000062   0.000065   0.000025  -0.000019   0.000010
    18  H    0.012252   0.000005   0.000000   0.000000  -0.000000   0.000000
    19  H   -0.060820  -0.000083   0.000005  -0.000000  -0.000000   0.000000
    20  H    0.440612   0.002264   0.000235  -0.000015  -0.000008   0.000002
    21  H    0.000000   0.000001  -0.000078   0.016549  -0.066573   0.001058
    22  H   -0.000000  -0.000000   0.000004  -0.001981   0.014675  -0.000121
    23  H    0.000000   0.000000  -0.000108   0.014037  -0.001804   0.000007
    24  H   -0.000007   0.000486  -0.008907  -0.066762   0.017765  -0.000087
              13         14         15         16         17         18
     1  C   -0.000061  -0.000001   0.000006  -0.000004   0.015008  -0.001717
     2  C   -0.000047   0.000001  -0.000003   0.000352  -0.065766   0.013710
     3  Cl  -0.001602   0.000279  -0.000932   0.004430   0.003397  -0.000137
     4  C   -0.000001   0.000000  -0.000000  -0.000013   0.440611  -0.060039
     5  C    0.000000  -0.000000   0.000000  -0.000000  -0.056273   0.445903
     6  C   -0.000000   0.000000   0.000000  -0.000000   0.013454  -0.064455
     7  C    0.000000   0.000000  -0.000000   0.000001  -0.002130   0.012252
     8  N   -0.000005  -0.000005   0.000028   0.001671  -0.000062   0.000005
     9  N    0.006352  -0.000103   0.006841  -0.055336   0.000065   0.000000
    10  C    0.089904  -0.138237   0.097222   0.319859   0.000025   0.000000
    11  C    0.304515   0.085244  -0.156169   0.075846  -0.000019  -0.000000
    12  Cl  -0.052463   0.002661   0.000724   0.001486   0.000010   0.000000
    13  C    4.969692   0.321660   0.076610  -0.106770   0.000001  -0.000000
    14  C    0.321660   5.067172   0.287609   0.063761  -0.000000   0.000000
    15  C    0.076610   0.287609   5.043129   0.320313   0.000000  -0.000000
    16  C   -0.106770   0.063761   0.320313   5.033419  -0.000001   0.000000
    17  H    0.000001  -0.000000   0.000000  -0.000001   0.637387  -0.011661
    18  H   -0.000000   0.000000  -0.000000   0.000000  -0.011661   0.642703
    19  H    0.000000   0.000000  -0.000000   0.000000  -0.000220  -0.010760
    20  H    0.000000  -0.000000  -0.000000   0.000002   0.000026  -0.000202
    21  H    0.442045  -0.057972   0.013296  -0.002134  -0.000000  -0.000000
    22  H   -0.062811   0.447516  -0.066802   0.013070  -0.000000  -0.000000
    23  H    0.012898  -0.066069   0.446784  -0.061587   0.000000  -0.000000
    24  H   -0.002584   0.014141  -0.062966   0.450847  -0.000000  -0.000000
              19         20         21         22         23         24
     1  C    0.012889  -0.066039   0.000000   0.000000  -0.000000   0.000056
     2  C   -0.001634   0.021111   0.000000   0.000000   0.000000  -0.000018
     3  Cl   0.000007  -0.000039   0.000010  -0.000003  -0.000010   0.000165
     4  C    0.012803  -0.003071   0.000000  -0.000000   0.000000   0.000000
     5  C   -0.065986   0.013520  -0.000000   0.000000  -0.000000  -0.000000
     6  C    0.448428  -0.068711   0.000000  -0.000000  -0.000000   0.000000
     7  C   -0.060820   0.440612   0.000000  -0.000000   0.000000  -0.000007
     8  N   -0.000083   0.002264   0.000001  -0.000000   0.000000   0.000486
     9  N    0.000005   0.000235  -0.000078   0.000004  -0.000108  -0.008907
    10  C   -0.000000  -0.000015   0.016549  -0.001981   0.014037  -0.066762
    11  C   -0.000000  -0.000008  -0.066573   0.014675  -0.001804   0.017765
    12  Cl   0.000000   0.000002   0.001058  -0.000121   0.000007  -0.000087
    13  C    0.000000   0.000000   0.442045  -0.062811   0.012898  -0.002584
    14  C    0.000000  -0.000000  -0.057972   0.447516  -0.066069   0.014141
    15  C   -0.000000  -0.000000   0.013296  -0.066802   0.446784  -0.062966
    16  C    0.000000   0.000002  -0.002134   0.013070  -0.061587   0.450847
    17  H   -0.000220   0.000026  -0.000000  -0.000000   0.000000  -0.000000
    18  H   -0.010760  -0.000202  -0.000000  -0.000000  -0.000000  -0.000000
    19  H    0.644469  -0.010818  -0.000000   0.000000   0.000000  -0.000000
    20  H   -0.010818   0.642730  -0.000000  -0.000000   0.000000  -0.000001
    21  H   -0.000000  -0.000000   0.644726  -0.011900  -0.000230   0.000008
    22  H    0.000000  -0.000000  -0.011900   0.656624  -0.011176  -0.000211
    23  H    0.000000   0.000000  -0.000230  -0.011176   0.652654  -0.011813
    24  H   -0.000000  -0.000001   0.000008  -0.000211  -0.011813   0.648386
 Mulliken charges:
               1
     1  C    0.037633
     2  C    0.037462
     3  Cl  -0.054548
     4  C   -0.006620
     5  C    0.002572
     6  C   -0.014229
     7  C   -0.016200
     8  N   -0.018740
     9  N   -0.164687
    10  C    0.178295
    11  C   -0.023270
    12  Cl  -0.080674
    13  C    0.002667
    14  C   -0.027657
    15  C   -0.005691
    16  C   -0.059210
    17  H    0.026148
    18  H    0.034398
    19  H    0.031719
    20  H    0.028400
    21  H    0.021194
    22  H    0.023114
    23  H    0.026417
    24  H    0.021503
 Sum of Mulliken charges =  -0.00000
 Mulliken charges with hydrogens summed into heavy atoms:
               1
     1  C    0.037633
     2  C    0.037462
     3  Cl  -0.054548
     4  C    0.019528
     5  C    0.036970
     6  C    0.017491
     7  C    0.012200
     8  N   -0.018740
     9  N   -0.164687
    10  C    0.178295
    11  C   -0.023270
    12  Cl  -0.080674
    13  C    0.023862
    14  C   -0.004543
    15  C    0.020727
    16  C   -0.037707
 APT charges:
               1
     1  C   -0.150098
     2  C    0.261582
     3  Cl  -0.205927
     4  C   -0.169823
     5  C    0.044398
     6  C   -0.093025
     7  C    0.035618
     8  N    0.190659
     9  N   -0.665352
    10  C    0.720413
    11  C    0.147087
    12  Cl  -0.254565
    13  C    0.008400
    14  C   -0.179710
    15  C    0.060144
    16  C   -0.164720
    17  H    0.060916
    18  H    0.045020
    19  H    0.039072
    20  H    0.072575
    21  H    0.065253
    22  H    0.035918
    23  H    0.038379
    24  H    0.057785
 Sum of APT charges =  -0.00000
 APT charges with hydrogens summed into heavy atoms:
               1
     1  C   -0.150098
     2  C    0.261582
     3  Cl  -0.205927
     4  C   -0.108907
     5  C    0.089418
     6  C   -0.053953
     7  C    0.108194
     8  N    0.190659
     9  N   -0.665352
    10  C    0.720413
    11  C    0.147087
    12  Cl  -0.254565
    13  C    0.073652
    14  C   -0.143792
    15  C    0.098523
    16  C   -0.106935
 Electronic spatial extent (au):  <R**2>=           5201.8214
 Charge=             -0.0000 electrons
 Dipole moment (field-independent basis, Debye):
    X=             -1.0505    Y=              1.6201    Z=              1.0612  Tot=              2.2032
 Quadrupole moment (field-independent basis, Debye-Ang):
   XX=            -86.4625   YY=            -98.2291   ZZ=           -105.7286
   XY=             -7.7633   XZ=              3.2944   YZ=             -2.2617
 Traceless Quadrupole moment (field-independent basis, Debye-Ang):
   XX=             10.3442   YY=             -1.4224   ZZ=             -8.9219
   XY=             -7.7633   XZ=              3.2944   YZ=             -2.2617
 Octapole moment (field-independent basis, Debye-Ang**2):
  XXX=            -91.8008  YYY=           -369.5184  ZZZ=             92.2160  XYY=            -66.1937
  XXY=           -105.3164  XXZ=             25.7653  XZZ=            -18.0419  YZZ=           -150.9180
  YYZ=             24.7433  XYZ=             -3.6618
 Hexadecapole moment (field-independent basis, Debye-Ang**3):
 XXXX=          -3399.3478 YYYY=          -2172.0168 ZZZZ=           -739.8268 XXXY=            425.1465
 XXXZ=             63.0172 YYYX=            370.3066 YYYZ=            180.8374 ZZZX=             40.7732
 ZZZY=            183.6716 XXYY=           -960.1982 XXZZ=           -780.4913 YYZZ=           -552.8811
 XXYZ=             23.2616 YYXZ=             18.1807 ZZXY=            187.5800
 N-N= 1.251342873900D+03 E-N=-6.013081054582D+03  KE= 1.482928429361D+03
  Exact polarizability:     264.595     -38.528     139.286      11.850     -21.086     111.285
 Approx polarizability:     270.229     -12.668     167.463      13.812     -24.994     139.757
 No NMR shielding tensors so no spin-rotation constants.
 Leave Link  601 at Fri Mar  6 16:26:33 2026, MaxMem=  2415919104 cpu:               0.9 elap:               0.2
 (Enter /prod/precompiled/gaussian/16c2/g16/l701.exe)
 ... and contract with generalized density number  0.
 Compute integral second derivatives.
 R6Disp: Adding Grimme-D2 dispersion energy 2nd derivatives to the Hessian.
   1 Symmetry operations used in ECPInt.
 ECPInt:  NShTT=    7750 NPrTT=   30142 LenC2=    7132 LenP2D=   19454.
 LDataN:  DoStor=T MaxTD1= 6 Len=  172
 Leave Link  701 at Fri Mar  6 16:26:33 2026, MaxMem=  2415919104 cpu:               1.0 elap:               0.2
 (Enter /prod/precompiled/gaussian/16c2/g16/l702.exe)
 L702 exits ... SP integral derivatives will be done elsewhere.
 Leave Link  702 at Fri Mar  6 16:26:33 2026, MaxMem=  2415919104 cpu:               0.1 elap:               0.1
 (Enter /prod/precompiled/gaussian/16c2/g16/l703.exe)
 Integral derivatives from FoFJK, PRISM(SPDF).
 Compute integral second derivatives, UseDBF=F ICtDFT=           0.
 Calling FoFJK, ICntrl=    100127 FMM=F ISym2X=0 I1Cent= 0 IOpClX= 0 NMat=1 NMatS=1 NMatT=0.
 FoFJK:  IHMeth= 1 ICntrl=  100127 DoSepK=T KAlg= 0 I1Cent=           0 FoldK=F
 IRaf=         1 NMat=       1 IRICut=       1 DoRegI=T DoRafI=F ISym2E= 0 IDoP0=0 IntGTp=1.
 FoFCou: FMM=F IPFlag=           0 FMFlag=      100000 FMFlg1=         800
         NFxFlg=           0 DoJE=F BraDBF=F KetDBF=F FulRan=T
         wScrn=  0.000000 ICntrl=    100527 IOpCl=  0 I1Cent=           0 NGrid=           0
         NMat0=    1 NMatS0=      1 NMatT0=    0 NMatD0=    1 NMtDS0=    0 NMtDT0=    0
 Symmetry not used in FoFCou.
 Leave Link  703 at Fri Mar  6 16:27:09 2026, MaxMem=  2415919104 cpu:             422.4 elap:              35.6
 (Enter /prod/precompiled/gaussian/16c2/g16/l716.exe)
 Dipole        =-4.13286720D-01 6.37384852D-01 4.17501511D-01
 Polarizability= 2.64594978D+02-3.85279674D+01 1.39285757D+02
                 1.18495188D+01-2.10864359D+01 1.11284937D+02
 -------------------------------------------------------------------
 Center     Atomic                   Forces (Hartrees/Bohr)
 Number     Number              X              Y              Z
 -------------------------------------------------------------------
      1        6          -0.019301227    0.017318383   -0.000098601
      2        6          -0.002910174    0.011129663   -0.000383182
      3       17          -0.006361671    0.012118842    0.011130117
      4        6          -0.002684863   -0.007449654   -0.000272934
      5        6           0.005462950   -0.003005352    0.000208457
      6        6           0.005342106   -0.012551787   -0.000106452
      7        6          -0.001108301    0.009727152    0.001407653
      8        7           0.040956893    0.009043935   -0.004030372
      9        7           0.032133291   -0.014849704   -0.009486587
     10        6          -0.055866020   -0.006188214    0.014122386
     11        6           0.016376354    0.004273600   -0.008566302
     12       17          -0.005934874   -0.006806844   -0.007874699
     13        6          -0.007000715   -0.008153158    0.008443509
     14        6           0.000664599    0.001955939   -0.004122919
     15        6          -0.015371985    0.003462598   -0.003709560
     16        6           0.014606000   -0.004434049    0.006166845
     17        1           0.004249052    0.000061978    0.000519353
     18        1          -0.001086136    0.002521102   -0.000169540
     19        1          -0.002131325   -0.002162740   -0.000584974
     20        1           0.003578468   -0.004537698    0.001093584
     21        1          -0.001439228    0.001450917   -0.004311046
     22        1           0.002121955    0.000289735   -0.000664929
     23        1          -0.000853454   -0.001399010    0.002449381
     24        1          -0.003441694   -0.001815633   -0.001159186
 -------------------------------------------------------------------
 Cartesian Forces:  Max     0.055866020 RMS     0.011393608
 Leave Link  716 at Fri Mar  6 16:27:09 2026, MaxMem=  2415919104 cpu:               0.1 elap:               0.1
 (Enter /prod/precompiled/gaussian/16c2/g16/l103.exe)

 GradGradGradGradGradGradGradGradGradGradGradGradGradGradGradGradGradGrad
 Berny optimization.
 Step   1 in ReCalcFC=30 IGetFC= 4 recover analytic Hessian.
 Search for a saddle point.
 Step number   1 out of a maximum of  144
 All quantities printed in internal units (Hartrees-Bohrs-Radians)
 Swapping is turned off.
 Second derivative matrix not updated -- analytic derivatives used.
 ITU=  0
     Eigenvalues ---   -0.06120   0.00010   0.00123   0.00192   0.00427
     Eigenvalues ---    0.00924   0.01269   0.01616   0.02001   0.02234
     Eigenvalues ---    0.02524   0.02632   0.03159   0.03381   0.04496
     Eigenvalues ---    0.05136   0.05141   0.05241   0.05313   0.05879
     Eigenvalues ---    0.06348   0.07309   0.07614   0.08028   0.08596
     Eigenvalues ---    0.08790   0.09961   0.10191   0.10645   0.11844
     Eigenvalues ---    0.12112   0.15971   0.16870   0.17914   0.18414
     Eigenvalues ---    0.19243   0.20342   0.20791   0.21035   0.24166
     Eigenvalues ---    0.26275   0.28228   0.30072   0.36002   0.40883
     Eigenvalues ---    0.41956   0.45823   0.52193   0.57776   0.63953
     Eigenvalues ---    0.65199   0.79228   0.80880   0.85049   0.87112
     Eigenvalues ---    0.88379   0.89331   1.10530   1.10584   1.13371
     Eigenvalues ---    1.13639   1.26625   1.28353   1.32867   1.33199
     Eigenvalues ---    1.65152
 Eigenvectors required to have negative eigenvalues:
                          Y9        Y10       Y16       Z9        Y1
   1                    0.91177  -0.23684  -0.11530  -0.10404  -0.09544
                          Y8        X9        X8        Y11       X1
   1                   -0.09491   0.09056   0.09032  -0.07616  -0.07502
 RFO step:  Lambda0=7.986972666D-04 Lambda=-2.65298386D-02.
 Linear search not attempted -- option 19 set.
 Maximum step size (   0.300) exceeded in Quadratic search.
    -- Step size scaled by   0.588
 B after Tr=    -0.001862    0.004233    0.004131
         Rot=    1.000000    0.000332   -0.000287    0.000297 Ang=   0.06 deg.
 Variable       Old X    -DE/DX   Delta X   Delta X   Delta X     New X
                                 (Linear)    (Quad)   (Total)
    X1       -3.44749  -0.01930   0.00000   0.02400   0.02353  -3.42396
    Y1        2.45577   0.01732   0.00000   0.04598   0.05213   2.50790
    Z1       -0.16649  -0.00010   0.00000   0.00185   0.00628  -0.16021
    X2       -2.19659  -0.00291   0.00000  -0.00011   0.00088  -2.19571
    Y2        4.81636   0.01113   0.00000   0.05162   0.05711   4.87347
    Z2       -0.07679  -0.00038   0.00000   0.02024   0.02240  -0.05439
    X3        1.04755  -0.00636   0.00000  -0.01354  -0.01208   1.03547
    Y3        5.20400   0.01212   0.00000   0.08526   0.08909   5.29309
    Z3        0.22423   0.01113   0.00000   0.09746   0.09749   0.32173
    X4       -3.56193  -0.00268   0.00000  -0.02015  -0.01791  -3.57985
    Y4        7.09170  -0.00745   0.00000   0.01992   0.02614   7.11784
    Z4       -0.21116  -0.00027   0.00000   0.00349   0.00495  -0.20621
    X5       -6.18180   0.00546   0.00000  -0.01427  -0.01219  -6.19399
    Y5        7.08584  -0.00301   0.00000  -0.01784  -0.01022   7.07562
    Z5       -0.42419   0.00021   0.00000  -0.00973  -0.00673  -0.43092
    X6       -7.45834   0.00534   0.00000   0.00721   0.00786  -7.45047
    Y6        4.79739  -0.01255   0.00000  -0.03732  -0.02902   4.76837
    Z6       -0.53461  -0.00011   0.00000  -0.00365   0.00160  -0.53302
    X7       -6.10458  -0.00111   0.00000   0.02928   0.02867  -6.07590
    Y7        2.51969   0.00973   0.00000  -0.00988  -0.00231   2.51738
    Z7       -0.42093   0.00141   0.00000   0.00405   0.01000  -0.41093
    X8       -2.35194   0.04096   0.00000   0.10395   0.10208  -2.24986
    Y8       -0.00410   0.00904   0.00000   0.05274   0.05827   0.05416
    Z8        0.00000  -0.00403   0.00000  -0.06791  -0.06252  -0.06252
    X9        0.00000   0.03213   0.00000   0.07773   0.07586   0.07586
    Y9        0.00000  -0.01485   0.00000   0.05222   0.05637   0.05637
    Z9        0.00000  -0.00949   0.00000  -0.06457  -0.06052  -0.06052
   X10        2.66752  -0.05587   0.00000  -0.03099  -0.03286   2.63466
   Y10        0.00000  -0.00619   0.00000  -0.01629  -0.01362  -0.01362
   Z10        0.00000   0.01412   0.00000   0.00448   0.00711   0.00711
   X11        4.18050   0.01638   0.00000   0.00462   0.00230   4.18280
   Y11        1.09058   0.00427   0.00000  -0.02543  -0.02494   1.06564
   Z11       -1.88894  -0.00857   0.00000  -0.00521  -0.00419  -1.89313
   X12        2.91922  -0.00593   0.00000  -0.05918  -0.06227   2.85694
   Y12        2.46305  -0.00681   0.00000  -0.08708  -0.08759   2.37545
   Z12       -4.57712  -0.00787   0.00000  -0.01960  -0.01868  -4.59580
   X13        6.81728  -0.00700   0.00000  -0.01084  -0.01295   6.80433
   Y13        1.19348  -0.00815   0.00000  -0.02771  -0.02859   1.16489
   Z13       -1.61934   0.00844   0.00000  -0.00277  -0.00332  -1.62265
   X14        7.97904   0.00066   0.00000  -0.00806  -0.00947   7.96957
   Y14        0.23405   0.00196   0.00000  -0.00495  -0.00509   0.22897
   Z14        0.54241  -0.00412   0.00000   0.00323   0.00263   0.54504
   X15        6.51249  -0.01537   0.00000  -0.02571  -0.02664   6.48584
   Y15       -0.81097   0.00346   0.00000   0.00129   0.00330  -0.80767
   Z15        2.45328  -0.00371   0.00000  -0.00032   0.00063   2.45391
   X16        3.87984   0.01461   0.00000  -0.01136  -0.01253   3.86731
   Y16       -0.91207  -0.00443   0.00000  -0.02763  -0.02424  -0.93631
   Z16        2.18672   0.00617   0.00000   0.00555   0.00808   2.19480
   X17       -2.56689   0.00425   0.00000  -0.00941  -0.00606  -2.57295
   Y17        8.88843   0.00006   0.00000   0.01634   0.02201   8.91045
   Z17       -0.13701   0.00052   0.00000   0.00885   0.00855  -0.12846
   X18       -7.20879  -0.00109   0.00000  -0.02696  -0.02387  -7.23266
   Y18        8.86465   0.00252   0.00000  -0.02038  -0.01220   8.85244
   Z18       -0.50286  -0.00017   0.00000  -0.01536  -0.01295  -0.51581
   X19       -9.50789  -0.00213   0.00000   0.00422   0.00476  -9.50314
   Y19        4.78044  -0.00216   0.00000  -0.05434  -0.04495   4.73549
   Z19       -0.70396  -0.00058   0.00000  -0.00949  -0.00305  -0.70701
   X20       -7.15526   0.00358   0.00000   0.07513   0.07339  -7.08187
   Y20        0.75298  -0.00454   0.00000  -0.04109  -0.03300   0.71998
   Z20       -0.52801   0.00109   0.00000   0.00538   0.01310  -0.51491
   X21        7.96877  -0.00144   0.00000  -0.02710  -0.02954   7.93922
   Y21        2.05642   0.00145   0.00000  -0.01987  -0.02241   2.03400
   Z21       -3.08358  -0.00431   0.00000  -0.01907  -0.02085  -3.10443
   X22       10.02414   0.00212   0.00000  -0.00562  -0.00686  10.01728
   Y22        0.33108   0.00029   0.00000   0.00106  -0.00016   0.33092
   Z22        0.73989  -0.00066   0.00000   0.00481   0.00298   0.74287
   X23        7.40586  -0.00085   0.00000  -0.02904  -0.02942   7.37644
   Y23       -1.52464  -0.00140   0.00000  -0.00152   0.00110  -1.52354
   Z23        4.16253   0.00245   0.00000   0.00604   0.00695   4.16948
   X24        2.75292  -0.00344   0.00000  -0.02394  -0.02468   2.72824
   Y24       -1.67589  -0.00182   0.00000  -0.03226  -0.02718  -1.70307
   Z24        3.72774  -0.00116   0.00000  -0.00366   0.00004   3.72778
         Item               Value     Threshold  Converged?
 Maximum Force            0.055866     0.000450     NO 
 RMS     Force            0.011394     0.000300     NO 
 Maximum Displacement     0.102079     0.001800     NO 
 RMS     Displacement     0.035150     0.001200     NO 
 Predicted change in Energy=-1.182057D-02
 Lowest energy point so far.  Saving SCF results.
 Step   1 in ReCalcFC=30 IGetFC= 0 compute gradient.
 GradGradGradGradGradGradGradGradGradGradGradGradGradGradGradGradGradGrad

 Leave Link  103 at Fri Mar  6 16:27:10 2026, MaxMem=  2415919104 cpu:               0.1 elap:               0.9
 (Enter /prod/precompiled/gaussian/16c2/g16/l202.exe)
                          Input orientation:                          
 ---------------------------------------------------------------------
 Center     Atomic      Atomic             Coordinates (Angstroms)
 Number     Number       Type             X           Y           Z
 ---------------------------------------------------------------------
      1          6           0       -1.811882    1.327124   -0.084778
      2          6           0       -1.161920    2.578930   -0.028780
      3         17           0        0.547947    2.800985    0.170250
      4          6           0       -1.894374    3.766598   -0.109119
      5          6           0       -3.277720    3.744257   -0.228033
      6          6           0       -3.942621    2.523312   -0.282060
      7          6           0       -3.215228    1.332140   -0.217452
      8          7           0       -1.190575    0.028661   -0.033084
      9          7           0        0.040143    0.029827   -0.032025
     10          6           0        1.394203   -0.007208    0.003763
     11          6           0        2.213440    0.563912   -1.001799
     12         17           0        1.511829    1.257036   -2.431995
     13          6           0        3.600698    0.616433   -0.858670
     14          6           0        4.217314    0.121163    0.288424
     15          6           0        3.432161   -0.427399    1.298552
     16          6           0        2.046493   -0.495473    1.161440
     17          1           0       -1.361547    4.715205   -0.067979
     18          1           0       -3.827359    4.684511   -0.272954
     19          1           0       -5.028843    2.505914   -0.374134
     20          1           0       -3.747566    0.380996   -0.272479
     21          1           0        4.201256    1.076347   -1.642794
     22          1           0        5.300917    0.175115    0.393109
     23          1           0        3.903443   -0.806224    2.206395
     24          1           0        1.443723   -0.901226    1.972656
 ---------------------------------------------------------------------
                    Distance matrix (angstroms):
                    1          2          3          4          5
     1  C    0.000000
     2  C    1.411596   0.000000
     3  Cl   2.793939   1.735674   0.000000
     4  C    2.440990   1.397677   2.641096   0.000000
     5  C    2.830501   2.423696   3.960318   1.388628   0.000000
     6  C    2.451496   2.792766   4.521823   2.402287   1.391301
     7  C    1.409613   2.409597   4.058239   2.771819   2.412949
     8  N    1.440382   2.550433   3.278656   3.804378   4.266126
     9  N    2.261804   2.818313   2.824552   4.208534   4.984337
    10  C    3.473796   3.636334   2.937655   5.006905   5.996172
    11  C    4.198408   4.049705   3.025238   5.284715   6.392664
    12  Cl   4.069569   3.830375   3.175614   4.826580   5.829537
    13  C    5.513621   5.217532   3.892330   6.378181   7.582455
    14  C    6.159937   5.922617   4.545290   7.127410   8.340808
    15  C    5.700169   5.648486   4.473725   6.924097   8.047091
    16  C    4.445444   4.600270   3.754295   5.942222   6.946451
    17  H    3.417919   2.145940   2.714250   1.088784   2.154084
    18  H    3.920409   3.405534   4.784078   2.146121   1.090046
    19  H    3.438329   3.883001   5.611061   3.388872   2.149714
    20  H    2.162699   3.402333   4.950130   3.863070   3.396211
    21  H    6.216762   5.798832   4.428112   6.837128   8.065629
    22  H    7.221316   6.908297   5.434665   8.057493   9.312229
    23  H    6.516562   6.489466   5.330778   7.738668   8.843213
    24  H    4.449443   4.786084   4.213958   6.104528   6.979654
                    6          7          8          9         10
     6  C    0.000000
     7  C    1.397198   0.000000
     8  N    3.722772   2.415010   0.000000
     9  N    4.705570   3.511103   1.230719   0.000000
    10  C    5.913283   4.805169   2.585289   1.355039   0.000000
    11  C    6.500335   5.538575   3.579416   2.439042   1.417209
    12  Cl   5.998058   5.220624   3.816630   3.071116   2.746828
    13  C    7.801944   6.883332   4.897282   3.702027   2.449764
    14  C    8.525275   7.547520   5.418228   4.190441   2.840329
    15  C    8.098915   7.041451   4.832280   3.672230   2.450777
    16  C    6.860484   5.738225   3.490016   2.392852   1.415663
    17  H    3.392959   3.860518   4.689791   4.890684   5.468133
[...]
 Alpha  occ. eigenvalues --   -0.35693  -0.34053  -0.32284  -0.25052
 Alpha virt. eigenvalues --   -0.02741   0.03270   0.05889   0.06502   0.07799
 Alpha virt. eigenvalues --    0.10613   0.12125   0.15153   0.17141   0.17559
 Alpha virt. eigenvalues --    0.19016   0.20769   0.21188   0.21852   0.22177
 Alpha virt. eigenvalues --    0.23385   0.23556   0.25508   0.29809   0.32525
 Alpha virt. eigenvalues --    0.33436   0.34282   0.35036   0.35852   0.36339
 Alpha virt. eigenvalues --    0.37225   0.38920   0.40266   0.41146   0.44978
 Alpha virt. eigenvalues --    0.45814   0.46283   0.47120   0.49414   0.50115
 Alpha virt. eigenvalues --    0.51341   0.52128   0.52686   0.53200   0.53923
 Alpha virt. eigenvalues --    0.55213   0.55438   0.55750   0.57632   0.58567
 Alpha virt. eigenvalues --    0.59695   0.59782   0.60172   0.61364   0.62353
 Alpha virt. eigenvalues --    0.64068   0.65464   0.65934   0.67663   0.67954
 Alpha virt. eigenvalues --    0.69489   0.69595   0.71324   0.72269   0.73104
 Alpha virt. eigenvalues --    0.73506   0.74191   0.74304   0.74916   0.76520
 Alpha virt. eigenvalues --    0.77246   0.77495   0.78223   0.78746   0.79055
 Alpha virt. eigenvalues --    0.79514   0.80496   0.81003   0.82572   0.82972
 Alpha virt. eigenvalues --    0.83689   0.85685   0.86633   0.87354   0.88479
 Alpha virt. eigenvalues --    0.88825   0.89455   0.90769   0.91614   0.92165
 Alpha virt. eigenvalues --    0.94057   0.94246   0.95647   0.95992   0.98994
 Alpha virt. eigenvalues --    1.02049   1.02729   1.03026   1.05178   1.06851
 Alpha virt. eigenvalues --    1.10088   1.11424   1.13665   1.15860   1.19002
 Alpha virt. eigenvalues --    1.21764   1.23084   1.24415   1.24953   1.28298
 Alpha virt. eigenvalues --    1.30199   1.31375   1.31714   1.32474   1.32674
 Alpha virt. eigenvalues --    1.34694   1.35384   1.35624   1.36586   1.37023
 Alpha virt. eigenvalues --    1.38992   1.39328   1.45582   1.48481   1.50399
 Alpha virt. eigenvalues --    1.55931   1.58071   1.58401   1.59299   1.63182
 Alpha virt. eigenvalues --    1.67488   1.72793   1.74566   1.76238   1.77073
 Alpha virt. eigenvalues --    1.79135   1.79650   1.80208   1.82106   1.83156
 Alpha virt. eigenvalues --    1.83539   1.84194   1.84776   1.85140   1.86897
 Alpha virt. eigenvalues --    1.88593   1.89066   1.89916   1.92326   1.95492
 Alpha virt. eigenvalues --    1.97930   1.98271   2.00151   2.01062   2.01623
 Alpha virt. eigenvalues --    2.03249   2.04012   2.06323   2.07537   2.09929
 Alpha virt. eigenvalues --    2.11414   2.12731   2.15906   2.16634   2.18466
 Alpha virt. eigenvalues --    2.20569   2.21190   2.22732   2.25088   2.29055
 Alpha virt. eigenvalues --    2.30095   2.31346   2.33732   2.34044   2.34202
 Alpha virt. eigenvalues --    2.36810   2.37916   2.38446   2.39317   2.40054
 Alpha virt. eigenvalues --    2.42125   2.46359   2.50085   2.52096   2.58256
 Alpha virt. eigenvalues --    2.63094   2.64581   2.68301   2.68407   2.68877
 Alpha virt. eigenvalues --    2.70582   2.72879   2.75889   2.78331   2.81065
 Alpha virt. eigenvalues --    2.81486   2.81934   2.87841   2.89433   2.91381
 Alpha virt. eigenvalues --    2.92438   2.95267   3.04885   3.08361   3.13234
 Alpha virt. eigenvalues --    3.15611   3.20219   3.24109   3.39995   3.46177
 Alpha virt. eigenvalues --    3.60556   3.66536   3.88260
          Condensed to atoms (all electrons):
               1          2          3          4          5          6
     1  C    5.214811   0.179681  -0.060368   0.084863  -0.138009   0.093105
     2  C    0.179681   5.303434   0.259767   0.336595   0.086554  -0.149042
     3  Cl  -0.060368   0.259767  16.904877  -0.056563   0.002558   0.000702
     4  C    0.084863   0.336595  -0.056563   4.978877   0.311134   0.075364
     5  C   -0.138009   0.086554   0.002558   0.311134   5.043750   0.277663
     6  C    0.093105  -0.149042   0.000702   0.075364   0.277663   5.096565
     7  C    0.359703   0.037712   0.001422  -0.102229   0.074786   0.279772
     8  N    0.352509  -0.063658  -0.005623   0.003770  -0.000215   0.007577
     9  N   -0.084762  -0.007659  -0.001379  -0.000941   0.000049  -0.000413
    10  C   -0.001028  -0.000290  -0.007402  -0.000021  -0.000006   0.000005
    11  C    0.000618   0.000337   0.000986   0.000019   0.000001   0.000000
    12  Cl   0.004460   0.000546  -0.000005  -0.000071   0.000003  -0.000023
    13  C   -0.000010  -0.000005  -0.000477  -0.000000   0.000000  -0.000000
    14  C   -0.000003   0.000001   0.000142   0.000000  -0.000000   0.000000
    15  C    0.000013  -0.000001  -0.000948  -0.000000   0.000000   0.000000
    16  C    0.000544   0.000107   0.010231   0.000015  -0.000000  -0.000000
    17  H    0.016049  -0.062919   0.002435   0.439478  -0.057479   0.012367
    18  H   -0.001769   0.013803  -0.000114  -0.059659   0.444948  -0.063381
    19  H    0.012796  -0.001363   0.000007   0.011893  -0.063751   0.449358
    20  H   -0.061861   0.021432  -0.000047  -0.003066   0.012468  -0.068849
    21  H   -0.000001  -0.000000  -0.000001   0.000000  -0.000000   0.000000
    22  H    0.000000  -0.000000   0.000000  -0.000000  -0.000000  -0.000000
    23  H   -0.000000   0.000000  -0.000014  -0.000000  -0.000000   0.000000
    24  H   -0.000085  -0.000049   0.001977   0.000003  -0.000000   0.000000
               7          8          9         10         11         12
     1  C    0.359703   0.352509  -0.084762  -0.001028   0.000618   0.004460
     2  C    0.037712  -0.063658  -0.007659  -0.000290   0.000337   0.000546
     3  Cl   0.001422  -0.005623  -0.001379  -0.007402   0.000986  -0.000005
     4  C   -0.102229   0.003770  -0.000941  -0.000021   0.000019  -0.000071
     5  C    0.074786  -0.000215   0.000049  -0.000006   0.000001   0.000003
     6  C    0.279772   0.007577  -0.000413   0.000005   0.000000  -0.000023
     7  C    5.035009  -0.074505   0.006999  -0.000273  -0.000059  -0.000509
     8  N   -0.074505   6.542580   0.303919  -0.057298   0.003642  -0.002098
     9  N    0.006999   0.303919   6.616612   0.366556  -0.072487  -0.001768
    10  C   -0.000273  -0.057298   0.366556   5.102686   0.239977  -0.067041
    11  C   -0.000059   0.003642  -0.072487   0.239977   5.255215   0.242515
    12  Cl  -0.000509  -0.002098  -0.001768  -0.067041   0.242515  16.962965
    13  C   -0.000001  -0.000043   0.005859   0.081958   0.366751  -0.041660
    14  C    0.000000  -0.000005  -0.000005  -0.134169   0.075715   0.002279
    15  C    0.000000  -0.000020   0.008100   0.102785  -0.159540   0.000654
    16  C    0.000007   0.003292  -0.066535   0.293519   0.092994   0.001765
    17  H   -0.002052  -0.000080   0.000040   0.000010  -0.000002   0.000000
    18  H    0.012372   0.000005   0.000000   0.000000  -0.000000   0.000000
    19  H   -0.062124  -0.000111   0.000005  -0.000000  -0.000000   0.000000
    20  H    0.435693   0.004577   0.000312   0.000008  -0.000006   0.000050
    21  H    0.000000   0.000001  -0.000073   0.016836  -0.066819   0.000431
    22  H   -0.000000  -0.000000   0.000004  -0.001912   0.014748  -0.000100
    23  H   -0.000000  -0.000000  -0.000117   0.014391  -0.001143   0.000006
    24  H    0.000002   0.000976  -0.010383  -0.076024   0.016205  -0.000086
              13         14         15         16         17         18
     1  C   -0.000010  -0.000003   0.000013   0.000544   0.016049  -0.001769
     2  C   -0.000005   0.000001  -0.000001   0.000107  -0.062919   0.013803
     3  Cl  -0.000477   0.000142  -0.000948   0.010231   0.002435  -0.000114
     4  C   -0.000000   0.000000  -0.000000   0.000015   0.439478  -0.059659
     5  C    0.000000  -0.000000   0.000000  -0.000000  -0.057479   0.444948
     6  C   -0.000000   0.000000   0.000000  -0.000000   0.012367  -0.063381
     7  C   -0.000001   0.000000   0.000000   0.000007  -0.002052   0.012372
     8  N   -0.000043  -0.000005  -0.000020   0.003292  -0.000080   0.000005
     9  N    0.005859  -0.000005   0.008100  -0.066535   0.000040   0.000000
    10  C    0.081958  -0.134169   0.102785   0.293519   0.000010   0.000000
    11  C    0.366751   0.075715  -0.159540   0.092994  -0.000002  -0.000000
    12  Cl  -0.041660   0.002279   0.000654   0.001765   0.000000   0.000000
    13  C    4.941870   0.310927   0.086793  -0.116800   0.000000  -0.000000
    14  C    0.310927   5.093361   0.294117   0.056775   0.000000   0.000000
    15  C    0.086793   0.294117   5.030788   0.317305   0.000000  -0.000000
    16  C   -0.116800   0.056775   0.317305   5.073474  -0.000003   0.000000
    17  H    0.000000   0.000000   0.000000  -0.000003   0.633567  -0.011069
    18  H   -0.000000   0.000000  -0.000000   0.000000  -0.011069   0.635155
    19  H    0.000000  -0.000000   0.000000  -0.000000  -0.000177  -0.010304
    20  H    0.000000  -0.000000  -0.000000   0.000000   0.000028  -0.000180
    21  H    0.440887  -0.060006   0.012470  -0.001706  -0.000000  -0.000000
    22  H   -0.065085   0.450320  -0.067380   0.013166  -0.000000   0.000000
    23  H    0.012319  -0.065331   0.441287  -0.060423   0.000000  -0.000000
    24  H   -0.002530   0.013921  -0.064046   0.460624  -0.000000   0.000000
              19         20         21         22         23         24
     1  C    0.012796  -0.061861  -0.000001   0.000000  -0.000000  -0.000085
     2  C   -0.001363   0.021432  -0.000000  -0.000000   0.000000  -0.000049
     3  Cl   0.000007  -0.000047  -0.000001   0.000000  -0.000014   0.001977
     4  C    0.011893  -0.003066   0.000000  -0.000000  -0.000000   0.000003
     5  C   -0.063751   0.012468  -0.000000  -0.000000  -0.000000  -0.000000
     6  C    0.449358  -0.068849   0.000000  -0.000000   0.000000   0.000000
     7  C   -0.062124   0.435693   0.000000  -0.000000  -0.000000   0.000002
     8  N   -0.000111   0.004577   0.000001  -0.000000  -0.000000   0.000976
     9  N    0.000005   0.000312  -0.000073   0.000004  -0.000117  -0.010383
    10  C   -0.000000   0.000008   0.016836  -0.001912   0.014391  -0.076024
    11  C   -0.000000  -0.000006  -0.066819   0.014748  -0.001143   0.016205
    12  Cl   0.000000   0.000050   0.000431  -0.000100   0.000006  -0.000086
    13  C    0.000000   0.000000   0.440887  -0.065085   0.012319  -0.002530
    14  C   -0.000000  -0.000000  -0.060006   0.450320  -0.065331   0.013921
    15  C    0.000000  -0.000000   0.012470  -0.067380   0.441287  -0.064046
    16  C   -0.000000   0.000000  -0.001706   0.013166  -0.060423   0.460624
    17  H   -0.000177   0.000028  -0.000000  -0.000000   0.000000  -0.000000
    18  H   -0.010304  -0.000180  -0.000000   0.000000  -0.000000   0.000000
    19  H    0.635918  -0.009730   0.000000  -0.000000   0.000000  -0.000000
    20  H   -0.009730   0.636292  -0.000000   0.000000   0.000000  -0.000001
    21  H    0.000000  -0.000000   0.650803  -0.011529  -0.000233   0.000011
    22  H   -0.000000   0.000000  -0.011529   0.660784  -0.011037  -0.000190
    23  H    0.000000   0.000000  -0.000233  -0.011037   0.658403  -0.012226
    24  H   -0.000000  -0.000001   0.000011  -0.000190  -0.012226   0.662902
 Mulliken charges:
               1
     1  C    0.028743
     2  C    0.045016
     3  Cl  -0.052164
     4  C   -0.019458
     5  C    0.005546
     6  C   -0.010771
     7  C   -0.001727
     8  N   -0.019191
     9  N   -0.061933
    10  C    0.126733
    11  C   -0.009667
    12  Cl  -0.102316
    13  C   -0.020754
    14  C   -0.038040
    15  C   -0.002379
    16  C   -0.078352
    17  H    0.029806
    18  H    0.040192
    19  H    0.037584
    20  H    0.032878
    21  H    0.018931
    22  H    0.018209
    23  H    0.024117
    24  H    0.008996
 Sum of Mulliken charges =  -0.00000
 Mulliken charges with hydrogens summed into heavy atoms:
               1
     1  C    0.028743
     2  C    0.045016
     3  Cl  -0.052164
     4  C    0.010348
     5  C    0.045738
     6  C    0.026813
     7  C    0.031151
     8  N   -0.019191
     9  N   -0.061933
    10  C    0.126733
    11  C   -0.009667
    12  Cl  -0.102316
    13  C   -0.001823
    14  C   -0.019831
    15  C    0.021738
    16  C   -0.069356
 APT charges:
               1
     1  C   -0.752070
     2  C   -0.335595
     3  Cl   0.052374
     4  C   -0.504015
     5  C   -0.553279
     6  C   -0.548078
     7  C   -0.269660
     8  N   -0.061222
     9  N   -0.115969
    10  C   -0.442797
    11  C   -0.309289
    12  Cl   0.012180
    13  C   -0.460648
    14  C   -0.617606
    15  C   -0.447170
    16  C   -0.500259
    17  H    0.782491
    18  H    1.173794
    19  H    0.917119
    20  H    0.232015
    21  H    0.743833
    22  H    1.005020
    23  H    0.755596
    24  H    0.243235
 Sum of APT charges =  -0.00000
 APT charges with hydrogens summed into heavy atoms:
               1
     1  C   -0.752070
     2  C   -0.335595
     3  Cl   0.052374
     4  C    0.278476
     5  C    0.620515
     6  C    0.369042
     7  C   -0.037645
     8  N   -0.061222
     9  N   -0.115969
    10  C   -0.442797
    11  C   -0.309289
    12  Cl   0.012180
    13  C    0.283185
    14  C    0.387415
    15  C    0.308425
    16  C   -0.257024
 Electronic spatial extent (au):  <R**2>=           5267.1654
 Charge=             -0.0000 electrons
 Dipole moment (field-independent basis, Debye):
    X=             -2.3065    Y=              2.0363    Z=              0.6766  Tot=              3.1503
 Quadrupole moment (field-independent basis, Debye-Ang):
   XX=            -89.7968   YY=            -97.6830   ZZ=           -104.3473
   XY=             -9.2641   XZ=              4.6844   YZ=             -0.6931
 Traceless Quadrupole moment (field-independent basis, Debye-Ang):
   XX=              7.4790   YY=             -0.4073   ZZ=             -7.0716
   XY=             -9.2641   XZ=              4.6844   YZ=             -0.6931
 Octapole moment (field-independent basis, Debye-Ang**2):
  XXX=            -83.0984  YYY=           -349.6312  ZZZ=             51.6006  XYY=            -69.6763
  XXY=           -102.8563  XXZ=             -3.5059  XZZ=            -14.2964  YZZ=           -141.2781
  YYZ=             16.3697  XYZ=              2.9608
 Hexadecapole moment (field-independent basis, Debye-Ang**3):
 XXXX=          -3413.5886 YYYY=          -2096.9834 ZZZZ=           -998.0196 XXXY=            520.8435
 XXXZ=             74.4474 YYYX=            478.9881 YYYZ=            -28.5124 ZZZX=             17.9598
 ZZZY=            -57.3657 XXYY=           -934.3359 XXZZ=           -764.4385 YYZZ=           -586.3579
 XXYZ=            -61.3119 YYXZ=              9.8341 ZZXY=            227.2625
 N-N= 1.226723370939D+03 E-N=-5.963578115171D+03  KE= 1.483120756642D+03
  Exact polarizability:       0.000       0.000       0.000       0.000       0.000       0.000
 Approx polarizability:     255.641     -21.395     151.286      33.187      -1.200     160.859
 No NMR shielding tensors so no spin-rotation constants.
 Leave Link  601 at Fri Mar  6 16:53:38 2026, MaxMem=  2415919104 cpu:               0.9 elap:               0.1
 (Enter /prod/precompiled/gaussian/16c2/g16/l716.exe)
 Dipole        =-9.07465679D-01 8.01129982D-01 2.66190341D-01
 Polarizability= 0.00000000D+00 0.00000000D+00 0.00000000D+00
                 0.00000000D+00 0.00000000D+00 0.00000000D+00
 -------------------------------------------------------------------
 Center     Atomic                   Forces (Hartrees/Bohr)
 Number     Number              X              Y              Z
 -------------------------------------------------------------------
      1        6          -0.000002105    0.000002234   -0.000001490
      2        6          -0.000000447   -0.000003197   -0.000000667
      3       17          -0.000004784    0.000000020   -0.000004327
      4        6          -0.000003843    0.000000639   -0.000003799
      5        6           0.000002108   -0.000003268   -0.000001692
      6        6           0.000000015    0.000004060   -0.000000882
      7        6           0.000004395   -0.000001141    0.000000562
      8        7          -0.000000558    0.000000328   -0.000000087
      9        7           0.000000356    0.000000345    0.000000718
     10        6           0.000000934    0.000000550    0.000000280
     11        6          -0.000001467   -0.000001248    0.000001569
     12       17           0.000003116   -0.000002163    0.000004614
     13        6           0.000001389   -0.000000819    0.000002621
     14        6          -0.000001834    0.000000113    0.000001114
     15        6           0.000000109    0.000000497    0.000000388
     16        6          -0.000001300    0.000000590   -0.000000008
     17        1          -0.000001441   -0.000001637   -0.000002250
     18        1           0.000000245    0.000000180   -0.000001031
     19        1           0.000004740    0.000001002    0.000001591
     20        1           0.000002024    0.000002806    0.000000978
     21        1          -0.000000347   -0.000000804    0.000002539
     22        1          -0.000000395   -0.000000102    0.000000839
     23        1          -0.000000906    0.000000482   -0.000000630
     24        1          -0.000000003    0.000000532   -0.000000951
 -------------------------------------------------------------------
 Cartesian Forces:  Max     0.000004784 RMS     0.000001941
 Leave Link  716 at Fri Mar  6 16:53:38 2026, MaxMem=  2415919104 cpu:               0.1 elap:               0.0
 (Enter /prod/precompiled/gaussian/16c2/g16/l9999.exe)
 Unable to Open any file for archive entry.
 1\1\GINC-AMD38\FTS\RwB97XD\def2SVP\C12H8Cl2N2\SVELA\06-Mar-2026\0\\#p 
 nosymm scf=(maxconventionalcycles=200,xqc) wB97XD def2SVP opt=(TS,NoEi
 genTest,RecalcFC=30,Cartesian,SkipDihedral,MaxCycles=300)\\Title Card\
 \0,1\C,-1.772031326,1.4479827495,0.0106065936\C,-1.3009307988,2.674267
 0697,0.5071544804\Cl,0.2165604763,2.8188434771,1.3404315577\C,-2.08652
 8094,3.8197383796,0.3816466346\C,-3.3302786021,3.7538511185,-0.2411997
 479\C,-3.8133158225,2.5376525599,-0.7231568006\C,-3.039759749,1.393632
 9,-0.5769534951\N,-1.1144242956,0.167048886,0.0539665193\N,0.096183564
 1,0.1296835343,0.1176062431\C,1.4206345037,0.0816271369,0.1139123393\C
 ,2.139290081,0.2717907027,-1.0945896853\Cl,1.2323829853,0.5863977121,-
 2.5503781106\C,3.52495747,0.2111569124,-1.1143937895\C,4.2439780422,-0
 .0079841455,0.0600143752\C,3.5476676796,-0.1718791439,1.2581920593\C,2
 .1608777381,-0.1386820796,1.3007236872\H,-1.710210181,4.7626739675,0.7
 808252221\H,-3.9291449707,4.6616525667,-0.3373320279\H,-4.7924971448,2
 .4809247621,-1.2012765508\H,-3.3843902103,0.4174305529,-0.9236768785\H
 ,4.0362156595,0.3523627277,-2.0682705255\H,5.3335050612,-0.0463992072,
 0.0360455421\H,4.0945899133,-0.3387510111,2.1888270193\H,1.6205990204,
 -0.2740861283,2.2377283386\\Version=ES64L-G16RevC.02\HF=-1490.9841083\
 RMSD=4.297e-09\RMSF=1.941e-06\Dipole=-0.9074657,0.80113,0.2661903\Pola
 r=0.,0.,0.,0.,0.,0.\Quadrupole=5.5604171,-0.3028447,-5.2575724,-6.8876
 577,3.4826996,-0.515331\PG=C01 [X(C12H8Cl2N2)]\\@
 The archive entry for this job was punched.


 I (ERNEST RUTHERFORD) CAME INTO THE ROOM, WHICH WAS HALF DARK, AND PRESENTLY
 SPOTTED LORD KELVIN IN THE AUDIENCE AND REALIZED I WAS IN TROUBLE AT
 THE LAST PART OF MY SPEECH DEALING THE AGE OF THE EARTH, WHERE MY VIEWS
 CONFLICTED WITH HIS.  TO MY RELIEF KELVIN FELL FAST ASLEEP, BUT AS I CAME
 TO THE IMPORTANT POINT, I SAW THE OLD BIRD SIT UP AND COCK A BALEFUL GLANCE
 AT ME! THEN A SUDDEN INSPIRATION CAME AND I SAID LORD KELVIN HAD LIMITED
 THE AGE OF THE EARTH PROVIDED NO NEW SOURCE WAS DISCOVERED. THAT
 PROPHETIC UTTERANCE REFERS TO WHAT WE ARE NOW CONSIDERING TONIGHT, RADIUM!
 BEHOLD!  THE OLD BOY BEAMED UPON ME.
 Job cpu time:       0 days  4 hours 35 minutes 17.2 seconds.
 Elapsed time:       0 days  0 hours 28 minutes  5.2 seconds.
 File lengths (MBytes):  RWF=    245 Int=      0 D2E=      0 Chk=      7 Scr=      1
 Normal termination of Gaussian 16 at Fri Mar  6 16:53:38 2026.
